/*--------------------------------*- C++ -*----------------------------------*\
| =========                 |                                                 |
| \\      /  F ield         | OpenFOAM: The Open Source CFD Toolbox           |
|  \\    /   O peration     | Version:  v1706                                 |
|   \\  /    A nd           | Web:      www.OpenFOAM.com                      |
|    \\/     M anipulation  |                                                 |
\*---------------------------------------------------------------------------*/
FoamFile
{
    version     2.0;
    format      ascii;
    class       volScalarField;
    location    "0";
    object      nut;
}
// * * * * * * * * * * * * * * * * * * * * * * * * * * * * * * * * * * * * * //

dimensions      [0 2 -1 0 0 0 0];


internalField   nonuniform List<scalar> 
12225
(
2.70507e-05
3.5584e-05
4.05203e-05
4.31919e-05
4.44508e-05
4.4963e-05
4.49759e-05
4.47472e-05
4.45657e-05
4.4201e-05
4.38553e-05
4.35241e-05
4.32273e-05
4.29454e-05
4.27115e-05
4.24752e-05
4.23129e-05
4.20925e-05
0.000216418
8.45158e-05
5.58945e-05
4.40579e-05
3.83785e-05
3.53503e-05
3.38604e-05
3.30681e-05
3.28556e-05
3.28778e-05
3.32152e-05
3.36055e-05
3.42284e-05
3.48018e-05
3.55801e-05
3.62455e-05
3.70687e-05
3.77719e-05
0.000573252
0.00031164
0.000194368
0.000142165
0.000113216
9.44931e-05
8.20292e-05
7.3312e-05
6.68e-05
6.19625e-05
5.80404e-05
5.51128e-05
5.25322e-05
5.07066e-05
4.89221e-05
4.77676e-05
4.66679e-05
4.53091e-05
0.000751695
0.000624912
0.000451567
0.000351003
0.000289061
0.000246569
0.000216699
0.000194295
0.000177764
0.000164289
0.000154046
0.000145064
0.000138195
0.00013173
0.000126864
0.000121934
0.000118615
0.000113443
0.000825685
0.000787937
0.000687195
0.000591601
0.000517092
0.000458118
0.000413491
0.000377228
0.000349675
0.000325961
0.000307902
0.000291296
0.000278923
0.000266592
0.000257868
0.000248271
0.000241925
0.000233898
0.000847344
0.000838162
0.000802523
0.000753212
0.000699336
0.000648238
0.000604837
0.000565863
0.000534207
0.000505358
0.000482495
0.000460719
0.000444085
0.000427079
0.000414953
0.000401189
0.000392265
0.000380479
0.00085136
0.000849321
0.000839117
0.000823757
0.000798276
0.000768412
0.000739174
0.000709549
0.000683358
0.000657722
0.000636207
0.000614794
0.000597707
0.000579783
0.000566529
0.000551266
0.000540998
0.000527275
0.000851688
0.000851471
0.000849544
0.000844613
0.000835855
0.000824557
0.000810184
0.000793464
0.000777243
0.000760012
0.00074456
0.000728286
0.000714569
0.00069976
0.000688168
0.000674816
0.000665126
0.000652529
0.000851749
0.000851443
0.000851043
0.000849885
0.000847535
0.000843618
0.000838594
0.00083127
0.000823649
0.000814989
0.000806298
0.000796549
0.000787795
0.000778066
0.000769839
0.000760535
0.000752923
0.00074383
0.000851786
0.000851366
0.000851069
0.000850609
0.000850034
0.000848808
0.000847331
0.000844857
0.000841997
0.000838303
0.000834501
0.000829861
0.000825422
0.000820271
0.000815564
0.0008103
0.00080552
0.000799736
0.000851794
0.000851356
0.000851021
0.000850624
0.000850325
0.000849824
0.000849338
0.000848517
0.000847604
0.00084626
0.000844872
0.000843007
0.0008412
0.000838881
0.000836816
0.000834103
0.000832038
0.000828841
0.000851792
0.000851359
0.000851001
0.000850611
0.000850306
0.000849938
0.000849631
0.00084921
0.000848815
0.000848233
0.000847676
0.000846875
0.000846137
0.000845092
0.000844212
0.000842914
0.000841974
0.000840423
0.000851787
0.000851362
0.000850989
0.000850608
0.00085028
0.000849936
0.000849644
0.000849319
0.00084904
0.000848697
0.000848398
0.000848001
0.000847658
0.000847179
0.000846786
0.00084621
0.000845771
0.0008451
0.000851783
0.000851364
0.00085098
0.000850605
0.000850263
0.000849925
0.000849622
0.000849315
0.000849043
0.000848758
0.000848506
0.000848232
0.00084799
0.000847714
0.000847472
0.000847185
0.000846936
0.000846635
0.000851781
0.000851364
0.000850974
0.0008506
0.000850251
0.000849916
0.000849602
0.0008493
0.000849018
0.000848744
0.000848488
0.000848238
0.000848004
0.000847773
0.000847556
0.00084734
0.000847136
0.000846932
0.00085178
0.000851363
0.00085097
0.000850596
0.000850242
0.000849906
0.000849588
0.000849285
0.000848998
0.000848724
0.000848463
0.000848213
0.000847976
0.000847748
0.000847531
0.000847322
0.000847123
0.000846931
0.000851779
0.000851362
0.000850967
0.000850592
0.000850236
0.000849899
0.000849578
0.000849273
0.000848984
0.000848707
0.000848444
0.000848192
0.000847952
0.000847722
0.000847502
0.000847292
0.00084709
0.000846898
0.000851779
0.000851362
0.000850965
0.000850589
0.000850233
0.000849894
0.000849572
0.000849265
0.000848974
0.000848695
0.00084843
0.000848177
0.000847934
0.000847703
0.000847481
0.000847269
0.000847066
0.000846871
0.000851779
0.000851362
0.000850965
0.000850589
0.000850232
0.000849892
0.00084957
0.000849262
0.00084897
0.000848691
0.000848424
0.00084817
0.000847927
0.000847694
0.000847471
0.000847258
0.000847054
0.000846858
0.000851779
0.000851362
0.000850966
0.000850591
0.000850234
0.000849895
0.000849573
0.000849266
0.000848973
0.000848695
0.000848428
0.000848174
0.00084793
0.000847697
0.000847473
0.000847259
0.000847052
0.000846855
0.000851779
0.000851364
0.000850968
0.000850595
0.000850238
0.000849902
0.000849578
0.000849274
0.000848979
0.0008487
0.000848427
0.000848168
0.00084791
0.000847667
0.00084742
0.000847187
0.000846947
0.000846723
0.000851776
0.000851369
0.000850969
0.000850603
0.000850243
0.00084991
0.000849573
0.000849254
0.000848916
0.000848587
0.000848223
0.000847865
0.000847456
0.00084706
0.000846596
0.00084616
0.000845637
0.00084517
0.000851766
0.000851388
0.000850969
0.000850624
0.000850209
0.000849789
0.000849234
0.000848616
0.000847803
0.000846896
0.000845768
0.00084456
0.000843125
0.000841664
0.000839958
0.000838333
0.000836386
0.000834699
0.000851746
0.000851484
0.00085091
0.000850388
0.000849138
0.000847445
0.000844951
0.000841942
0.000838073
0.000833847
0.000828961
0.000823929
0.000818447
0.000813019
0.000807264
0.000801726
0.000795842
0.000790778
0.000851902
0.000851484
0.000848989
0.000845043
0.000837097
0.00082746
0.000815895
0.000802854
0.00078838
0.00077437
0.000759663
0.000746077
0.000732118
0.000719684
0.000706819
0.000695842
0.000684088
0.000674695
0.000852286
0.000845091
0.000826114
0.00080337
0.000769312
0.000735477
0.000700809
0.000669707
0.000639499
0.000613594
0.000588614
0.000567745
0.000547316
0.000530659
0.000513866
0.00050061
0.000486568
0.000476068
0.000832326
0.000795026
0.000710426
0.000628093
0.000558113
0.000503168
0.000455763
0.000418871
0.000386625
0.000361594
0.000338764
0.000321228
0.000304415
0.000291772
0.000278912
0.000269549
0.00025937
0.000252305
0.000733649
0.00054378
0.000397994
0.000313132
0.000257946
0.000219673
0.000190514
0.000169567
0.000152553
0.000139992
0.000129095
0.000121018
0.000113528
0.000108076
0.000102634
9.88117e-05
9.46879e-05
9.19152e-05
0.000325677
0.000164837
0.000111413
8.60789e-05
7.08262e-05
6.13549e-05
5.50186e-05
5.08857e-05
4.79533e-05
4.60099e-05
4.45906e-05
4.36882e-05
4.30394e-05
4.2695e-05
4.24553e-05
4.24393e-05
4.24359e-05
4.26225e-05
3.2663e-05
3.90563e-05
4.3892e-05
4.69717e-05
4.93653e-05
5.11698e-05
5.25342e-05
5.34594e-05
5.4114e-05
5.44634e-05
5.46906e-05
5.46974e-05
5.46544e-05
5.455e-05
5.43772e-05
5.41699e-05
5.3945e-05
5.37084e-05
2.84076e-06
7.82715e-06
9.39723e-06
1.06651e-05
1.16593e-05
1.24445e-05
1.30753e-05
1.35911e-05
1.40208e-05
1.44069e-05
1.47797e-05
1.51437e-05
1.55096e-05
1.58857e-05
1.62755e-05
1.66779e-05
1.70905e-05
1.75132e-05
1.79562e-05
1.84528e-05
1.90566e-05
1.97602e-05
2.05267e-05
2.13415e-05
2.22034e-05
2.31148e-05
2.40783e-05
2.50943e-05
2.61601e-05
2.72687e-05
2.84079e-05
2.95711e-05
3.07507e-05
3.19378e-05
3.31271e-05
3.43132e-05
3.54931e-05
3.6664e-05
3.78244e-05
3.89736e-05
4.01114e-05
4.12389e-05
4.23576e-05
4.34703e-05
4.4581e-05
4.56951e-05
4.68205e-05
4.79677e-05
4.91103e-05
5.02457e-05
5.13756e-05
5.25006e-05
5.36209e-05
5.47372e-05
5.58498e-05
5.69591e-05
5.80653e-05
5.91687e-05
6.02693e-05
6.13673e-05
6.24627e-05
6.35554e-05
6.46454e-05
6.57325e-05
6.68165e-05
6.78973e-05
6.89745e-05
7.00478e-05
7.11168e-05
7.21813e-05
7.32407e-05
7.42947e-05
7.53427e-05
7.63844e-05
7.74191e-05
7.84463e-05
7.94655e-05
8.04763e-05
8.14778e-05
8.24697e-05
8.34512e-05
8.44219e-05
8.5381e-05
8.63281e-05
8.72623e-05
8.81833e-05
8.90903e-05
8.99827e-05
9.08599e-05
9.17212e-05
9.25659e-05
9.33932e-05
9.42024e-05
9.49927e-05
9.5763e-05
9.65122e-05
9.72393e-05
9.7943e-05
9.86222e-05
9.92761e-05
9.99052e-05
0.000100513
0.000101102
0.000101666
0.000102209
0.000102728
0.000103224
0.000103696
0.000104144
0.000104569
0.000104968
0.000105343
0.000105693
0.000106018
0.000106317
0.00010659
0.000106838
0.000107059
0.000107254
0.000107423
0.000107565
0.000107681
0.00010777
0.000107833
0.00010787
0.000107879
0.000107863
0.00010782
0.000107751
0.000107657
0.000107535
0.00010739
0.000107223
0.000107026
0.000106802
0.00010655
0.000106279
0.000105989
0.000105671
0.00010533
0.000104966
0.00010458
0.000104172
0.000103742
0.000103293
0.000102822
0.000102332
0.000101823
0.000101294
0.000100748
0.000100184
9.9603e-05
9.90058e-05
9.8393e-05
9.77652e-05
9.71231e-05
9.64675e-05
9.5799e-05
9.51184e-05
9.44264e-05
9.3724e-05
9.30121e-05
9.22922e-05
9.15668e-05
9.08454e-05
9.02216e-05
8.97869e-05
8.9377e-05
8.89657e-05
8.85509e-05
8.81324e-05
8.77103e-05
8.72842e-05
8.68532e-05
8.64152e-05
8.59648e-05
8.54919e-05
8.49652e-05
8.43256e-05
8.24658e-05
4.46665e-06
1.83098e-05
4.05796e-05
5.99378e-05
7.4145e-05
8.41592e-05
9.12515e-05
9.63115e-05
9.98688e-05
0.000102224
0.000103936
0.000105579
0.000107378
0.000109361
0.000111464
0.000113595
0.000115668
0.000117631
0.000119473
0.00012125
0.000122772
0.000124102
0.000125409
0.0001268
0.000128349
0.000130128
0.00013222
0.000134733
0.00013782
0.00014157
0.000145767
0.000150394
0.000155428
0.000160865
0.000166676
0.000172823
0.000179298
0.000186063
0.000193085
0.000200327
0.000207756
0.000215336
0.000223033
0.000230814
0.000238648
0.00024651
0.000254385
0.000262278
0.000270227
0.000278215
0.000286254
0.000294343
0.000302487
0.000310688
0.000318949
0.000327273
0.000335664
0.000344127
0.000352664
0.000361278
0.000369974
0.000378754
0.000387619
0.000396573
0.000405616
0.000414749
0.000423974
0.000433291
0.000442698
0.000452196
0.000461783
0.000471458
0.000481217
0.00049106
0.000500981
0.000510979
0.000521049
0.000531186
0.000541386
0.000551643
0.000561953
0.00057231
0.000582707
0.000593139
0.000603599
0.00061408
0.000624577
0.000635082
0.00064559
0.000656094
0.000666589
0.000677069
0.000687527
0.000697959
0.000708356
0.00071871
0.000729006
0.000739222
0.000749319
0.000759222
0.000768802
0.000777838
0.000786295
0.000794695
0.000802941
0.000811052
0.000819018
0.000826834
0.000834495
0.000841994
0.000849326
0.000856484
0.000863463
0.000870258
0.000876864
0.000883276
0.000889488
0.000895497
0.000901298
0.000906887
0.000912261
0.000917416
0.000922348
0.000927053
0.00093153
0.000935775
0.000939786
0.000943563
0.000947104
0.000950411
0.000953483
0.00095631
0.00095891
0.000961341
0.000963434
0.000965144
0.000966666
0.000968116
0.000969252
0.000970133
0.000970776
0.000971181
0.00097135
0.000971286
0.000970991
0.000970471
0.000969729
0.000968768
0.000967592
0.000966206
0.000964614
0.000962821
0.000960832
0.000958653
0.000956288
0.000953744
0.000951027
0.000948143
0.000945098
0.000941899
0.00093855
0.000935055
0.000931411
0.000927581
0.000923363
0.000917757
0.000910489
0.000902682
0.000894672
0.000886556
0.000878369
0.000870125
0.000861831
0.000853484
0.000845061
0.000836516
0.000827695
0.000818329
0.000806994
0.000779045
5.7826e-06
2.72978e-05
6.27777e-05
9.56154e-05
0.00012204
0.000142072
0.000156761
0.000167429
0.000175232
0.000181035
0.00018557
0.000189423
0.000192983
0.000196466
0.00019996
0.000203475
0.000206984
0.000210449
0.000213834
0.000217103
0.00022052
0.00022427
0.000228465
0.000233207
0.000238593
0.000244703
0.000251584
0.000259228
0.000267529
0.000276378
0.000285969
0.0002963
0.000307332
0.000319027
0.000331699
0.000345096
0.000358962
0.00037323
0.000387844
0.000402751
0.000417905
0.000433266
0.000448795
0.000464459
0.000480236
0.000496105
0.000512054
0.000528085
0.000544215
0.000560442
0.000576771
0.000593205
0.00060975
0.000626411
0.000643193
0.000660102
0.000677141
0.000694317
0.000711635
0.000729102
0.000746722
0.000764499
0.000782435
0.000800531
0.000818789
0.000837209
0.00085579
0.000874529
0.000893426
0.000912476
0.000931676
0.00095102
0.000970503
0.000990118
0.00100986
0.00102971
0.00104968
0.00106974
0.0010899
0.00111013
0.00113042
0.00115078
0.00117117
0.0011916
0.00121205
0.0012325
0.00125295
0.00127337
0.00129376
0.00131411
0.00133439
0.00135459
0.0013747
0.0013947
0.00141457
0.00143428
0.0014538
0.00147308
0.00149208
0.00151071
0.00152889
0.00154655
0.00156381
0.00158083
0.00159756
0.001614
0.00163013
0.00164595
0.00166143
0.00167657
0.00169135
0.00170576
0.0017198
0.00173345
0.0017467
0.00175954
0.00177196
0.00178395
0.00179551
0.00180662
0.00181728
0.00182748
0.00183721
0.00184647
0.00185526
0.00186356
0.00187137
0.0018787
0.00188553
0.00189187
0.00189772
0.00190308
0.00190797
0.00191247
0.00191636
0.00191945
0.00192216
0.00192456
0.00192641
0.00192774
0.00192857
0.00192892
0.00192878
0.00192817
0.00192708
0.00192552
0.00192351
0.00192106
0.00191816
0.00191482
0.00191107
0.0019069
0.00190234
0.00189737
0.00189203
0.00188633
0.00188026
0.00187386
0.00186712
0.00186007
0.00185272
0.00184506
0.00183711
0.0018288
0.00181989
0.00180959
0.0017976
0.00178475
0.00177145
0.00175789
0.00174413
0.00173022
0.00171617
0.00170198
0.00168762
0.00167297
0.00165776
0.00164122
0.00162059
0.00157843
6.718e-06
3.764e-05
8.43157e-05
0.000126354
0.000160107
0.00018601
0.000205395
0.000219719
0.000230317
0.000238326
0.000244669
0.000250055
0.00025499
0.000259803
0.000264685
0.000269737
0.000275011
0.000280546
0.000286394
0.000292634
0.000299392
0.000306789
0.000314926
0.000323889
0.000333746
0.000344544
0.000356303
0.000369018
0.000382667
0.000397242
0.000412767
0.000429229
0.00044661
0.000464879
0.000483609
0.000502782
0.000522452
0.000542566
0.000563058
0.000583861
0.000604931
0.000626255
0.000647803
0.000669552
0.000691491
0.000713625
0.000735983
0.000758533
0.000781235
0.000804085
0.000827087
0.000850247
0.000873571
0.000897065
0.000920734
0.000944585
0.000968623
0.000992853
0.00101728
0.00104191
0.00106675
0.00109181
0.00111707
0.00114256
0.00116825
0.00119416
0.00122028
0.0012466
0.00127312
0.00129984
0.00132675
0.00135383
0.00138109
0.00140851
0.00143607
0.00146378
0.00149161
0.00151955
0.00154759
0.00157571
0.00160389
0.00163213
0.0016604
0.00168868
0.00171696
0.00174522
0.00177345
0.00180161
0.00182969
0.00185768
0.00188554
0.00191327
0.00194083
0.00196819
0.00199534
0.00202223
0.00204883
0.00207509
0.00210098
0.00212642
0.00215137
0.00217585
0.00219992
0.00222361
0.00224691
0.0022698
0.00229226
0.00231427
0.00233582
0.00235689
0.00237746
0.00239752
0.00241705
0.00243604
0.00245447
0.00247234
0.00248962
0.0025063
0.00252239
0.00253785
0.00255269
0.00256688
0.00258044
0.00259334
0.00260557
0.00261714
0.00262803
0.00263825
0.00264778
0.00265663
0.00266481
0.0026723
0.00267919
0.00268557
0.00269091
0.0026953
0.00269926
0.00270261
0.00270525
0.00270719
0.00270844
0.00270901
0.00270892
0.00270816
0.00270676
0.0027047
0.00270202
0.00269871
0.00269479
0.00269027
0.00268516
0.00267947
0.00267323
0.00266643
0.00265911
0.00265126
0.00264292
0.0026341
0.0026248
0.00261507
0.00260489
0.0025943
0.00258329
0.0025718
0.00255965
0.00254635
0.00253167
0.00251606
0.00249987
0.00248328
0.00246639
0.00244926
0.00243192
0.00241439
0.00239663
0.00237852
0.00235972
0.00233932
0.00231405
0.00226926
7.37465e-06
4.82782e-05
0.000104961
0.000154387
0.00019389
0.000224203
0.000247047
0.000264143
0.000277023
0.000286977
0.000295052
0.000302056
0.000308579
0.000315026
0.00032166
0.000328644
0.000336082
0.000344057
0.000352645
0.000361931
0.000372008
0.000382965
0.000394876
0.000407804
0.000421789
0.000436855
0.000453003
0.000470218
0.000488476
0.000507743
0.00052798
0.000549128
0.000571109
0.000593823
0.000617137
0.000641001
0.000665382
0.000690233
0.000715511
0.00074118
0.000767202
0.000793515
0.000820088
0.000846898
0.000873927
0.000901153
0.00092854
0.000956096
0.000983846
0.0010118
0.00103995
0.00106831
0.00109689
0.00112568
0.0011547
0.00118394
0.00121341
0.00124312
0.00127306
0.00130323
0.00133365
0.00136432
0.00139524
0.00142641
0.00145782
0.00148947
0.00152136
0.00155348
0.00158582
0.00161837
0.00165112
0.00168407
0.0017172
0.00175049
0.00178393
0.00181751
0.00185121
0.00188502
0.00191891
0.00195287
0.00198687
0.00202091
0.00205495
0.00208898
0.00212297
0.00215691
0.00219077
0.00222452
0.00225815
0.00229164
0.00232494
0.00235805
0.00239092
0.00242354
0.00245588
0.00248789
0.00251955
0.00255082
0.00258168
0.00261209
0.00264206
0.00267155
0.0027006
0.00272919
0.0027573
0.00278492
0.00281203
0.00283861
0.00286463
0.00289008
0.00291494
0.00293919
0.00296282
0.0029858
0.00300812
0.00302977
0.00305073
0.00307099
0.00309052
0.00310933
0.0031274
0.00314471
0.00316126
0.00317704
0.00319204
0.00320624
0.00321965
0.00323225
0.00324405
0.00325505
0.00326524
0.00327464
0.00328345
0.00329137
0.00329819
0.00330395
0.00330926
0.00331373
0.00331737
0.00332019
0.0033222
0.0033234
0.00332382
0.00332344
0.00332229
0.00332037
0.0033177
0.00331429
0.00331014
0.00330527
0.00329969
0.00329342
0.00328648
0.00327887
0.00327062
0.00326174
0.00325225
0.00324217
0.00323152
0.00322032
0.00320858
0.00319633
0.00318357
0.00317025
0.00315626
0.00314132
0.0031253
0.00310839
0.00309084
0.00307281
0.00305439
0.00303567
0.00301669
0.00299747
0.00297799
0.00295814
0.0029376
0.00291536
0.00288829
0.00284553
7.84345e-06
5.80496e-05
0.000123813
0.000179831
0.000224384
0.000258607
0.000284564
0.000304223
0.000319286
0.000331171
0.000341023
0.000349729
0.000357949
0.000366151
0.000374651
0.000383658
0.000393313
0.000403716
0.000414954
0.000427101
0.000440228
0.000454399
0.000469662
0.000486051
0.000503583
0.000522257
0.000542057
0.000562952
0.0005849
0.000607849
0.000631737
0.000656494
0.000682041
0.000708299
0.000735189
0.000762656
0.000790652
0.000819129
0.000848046
0.00087736
0.000907032
0.000937026
0.000967313
0.00099787
0.00102868
0.00105973
0.001091
0.0011225
0.00115423
0.00118619
0.00121839
0.00125083
0.0012835
0.00131642
0.00134959
0.00138301
0.00141669
0.00145063
0.00148483
0.0015193
0.00155403
0.00158902
0.00162425
0.00165974
0.00169547
0.00173144
0.00176764
0.00180406
0.0018407
0.00187754
0.00191457
0.00195178
0.00198917
0.0020267
0.00206437
0.00210216
0.00214005
0.00217803
0.00221607
0.00225416
0.00229228
0.00233041
0.00236851
0.00240659
0.0024446
0.00248253
0.00252035
0.00255804
0.00259558
0.00263294
0.00267009
0.00270701
0.00274368
0.00278005
0.0028161
0.00285181
0.00288714
0.00292207
0.00295657
0.00299063
0.00302421
0.00305732
0.00308994
0.00312205
0.00315365
0.0031847
0.00321518
0.00324509
0.00327438
0.00330305
0.00333107
0.00335842
0.00338509
0.00341105
0.0034363
0.0034608
0.00348455
0.00350753
0.00352972
0.00355111
0.0035717
0.00359145
0.00361038
0.00362845
0.00364567
0.00366202
0.0036775
0.0036921
0.00370581
0.00371864
0.00373058
0.00374175
0.00375222
0.00376155
0.00376977
0.00377699
0.0037836
0.00378928
0.00379404
0.00379791
0.00380088
0.00380297
0.00380418
0.00380453
0.00380403
0.00380267
0.00380048
0.00379747
0.00379364
0.00378902
0.0037836
0.00377742
0.00377047
0.00376279
0.00375438
0.00374526
0.00373545
0.00372498
0.00371385
0.0037021
0.00368974
0.00367678
0.00366324
0.0036491
0.00363428
0.00361865
0.00360211
0.00358477
0.00356677
0.00354824
0.00352928
0.00350996
0.00349034
0.00347047
0.00345034
0.00342989
0.00340882
0.00338621
0.00335932
0.0033204
8.17958e-06
6.71212e-05
0.000140727
0.000202536
0.000251667
0.000289597
0.000318621
0.000340884
0.000358215
0.000372131
0.000383857
0.000394349
0.000404328
0.000414315
0.000424674
0.00043565
0.00044741
0.000460068
0.00047371
0.0004884
0.00050419
0.000521121
0.000539215
0.000558486
0.000578928
0.000600522
0.000623238
0.000647031
0.00067185
0.000697636
0.000724324
0.000751845
0.000780132
0.000809117
0.00083874
0.000868946
0.000899685
0.000930912
0.000962585
0.000994666
0.00102712
0.00105992
0.00109304
0.00112646
0.00116016
0.00119413
0.00122837
0.00126286
0.00129761
0.00133261
0.00136786
0.00140336
0.00143911
0.00147512
0.00151138
0.0015479
0.00158467
0.00162171
0.001659
0.00169656
0.00173436
0.00177242
0.00181072
0.00184926
0.00188803
0.00192703
0.00196626
0.00200569
0.00204533
0.00208515
0.00212516
0.00216534
0.00220566
0.00224613
0.00228671
0.00232741
0.00236819
0.00240904
0.00244995
0.00249089
0.00253184
0.00257278
0.0026137
0.00265456
0.00269536
0.00273605
0.00277663
0.00281706
0.00285733
0.0028974
0.00293725
0.00297686
0.0030162
0.00305523
0.00309394
0.0031323
0.00317028
0.00320785
0.003245
0.00328169
0.00331792
0.00335365
0.00338888
0.00342359
0.00345775
0.00349135
0.00352435
0.00355674
0.0035885
0.0036196
0.00365003
0.00367975
0.00370876
0.00373703
0.00376454
0.00379128
0.00381723
0.00384237
0.00386668
0.00389016
0.00391278
0.00393453
0.00395541
0.00397539
0.00399448
0.00401265
0.0040299
0.00404622
0.00406161
0.00407607
0.00408959
0.00410241
0.00411423
0.004125
0.00413459
0.00414328
0.00415116
0.00415808
0.00416404
0.00416904
0.00417311
0.00417624
0.00417845
0.00417975
0.00418013
0.00417962
0.00417823
0.00417596
0.00417282
0.00416883
0.004164
0.00415835
0.00415188
0.00414462
0.00413658
0.00412777
0.00411822
0.00410795
0.00409696
0.00408529
0.00407295
0.00405996
0.00404633
0.00403207
0.00401713
0.00400144
0.00398496
0.00396773
0.00394985
0.00393142
0.00391252
0.00389323
0.00387363
0.00385376
0.00383367
0.00381332
0.00379248
0.00377035
0.00374466
0.00370961
8.44455e-06
7.47604e-05
0.000154908
0.000221917
0.00027537
0.000316989
0.000349168
0.000374168
0.000393911
0.000409991
0.000423701
0.000436055
0.000447828
0.000459589
0.000471743
0.000484569
0.000498254
0.000512924
0.000528664
0.00054553
0.000563558
0.000582769
0.000603169
0.000624753
0.000647503
0.000671387
0.000696363
0.00072238
0.000749381
0.000777307
0.000806095
0.000835682
0.000866007
0.000897013
0.000928663
0.000960893
0.000993654
0.0010269
0.0010606
0.00109471
0.0011292
0.00116405
0.00119924
0.00123475
0.00127055
0.00130664
0.00134302
0.00137967
0.00141659
0.00145376
0.00149118
0.00152885
0.00156677
0.00160493
0.00164334
0.00168199
0.00172089
0.00176004
0.00179943
0.00183905
0.00187892
0.00191901
0.00195933
0.00199988
0.00204064
0.00208162
0.0021228
0.00216417
0.00220573
0.00224747
0.00228938
0.00233143
0.00237363
0.00241596
0.0024584
0.00250095
0.00254357
0.00258626
0.002629
0.00267177
0.00271455
0.00275733
0.00280008
0.00284278
0.00288541
0.00292795
0.00297037
0.00301266
0.00305478
0.00309672
0.00313845
0.00317994
0.00322117
0.00326211
0.00330273
0.00334301
0.00338293
0.00342246
0.00346157
0.00350023
0.00353844
0.00357617
0.00361339
0.00365008
0.00368622
0.00372179
0.00375676
0.00379112
0.00382482
0.00385786
0.00389021
0.00392185
0.00395276
0.00398291
0.00401229
0.00404088
0.00406866
0.0040956
0.00412171
0.00414695
0.00417131
0.00419478
0.00421735
0.004239
0.00425973
0.00427951
0.00429835
0.00431623
0.00433314
0.00434908
0.00436413
0.00437839
0.00439153
0.00440369
0.00441465
0.00442477
0.00443395
0.00444212
0.00444932
0.00445553
0.00446077
0.00446505
0.00446838
0.00447076
0.00447221
0.00447273
0.00447233
0.00447103
0.00446883
0.00446574
0.00446178
0.00445697
0.00445131
0.00444481
0.0044375
0.00442939
0.00442049
0.00441082
0.0044004
0.00438926
0.0043774
0.00436484
0.00435161
0.00433771
0.00432313
0.00430783
0.0042918
0.00427506
0.00425768
0.00423973
0.00422129
0.00420245
0.00418327
0.00416384
0.00414421
0.00412439
0.00410422
0.00408305
0.00405905
0.00402825
8.94907e-06
7.84422e-05
0.000164364
0.000236851
0.000294847
0.000340402
0.000375936
0.000403844
0.000426149
0.00044452
0.000460309
0.000474584
0.000488166
0.000501666
0.000515527
0.000530057
0.000545463
0.000561883
0.000579403
0.000598077
0.000617928
0.000638964
0.000661176
0.000684548
0.00070906
0.000734693
0.000761375
0.000789049
0.000817655
0.000847137
0.000877435
0.000908488
0.000940237
0.000972618
0.00100561
0.00103917
0.00107329
0.0011079
0.00114298
0.00117848
0.00121439
0.00125065
0.00128722
0.00132408
0.00136123
0.00139868
0.00143642
0.00147446
0.00151277
0.00155132
0.0015901
0.00162911
0.00166835
0.0017078
0.00174748
0.00178738
0.00182751
0.00186785
0.00190841
0.00194919
0.00199019
0.00203139
0.0020728
0.00211442
0.00215623
0.00219825
0.00224045
0.00228284
0.0023254
0.00236813
0.00241103
0.00245408
0.00249727
0.00254059
0.00258403
0.00262758
0.00267122
0.00271493
0.00275872
0.00280255
0.00284641
0.00289028
0.00293415
0.00297799
0.00302178
0.00306551
0.00310915
0.00315268
0.00319607
0.0032393
0.00328235
0.00332519
0.0033678
0.00341014
0.0034522
0.00349395
0.00353535
0.00357639
0.00361704
0.00365726
0.00369705
0.00373637
0.0037752
0.00381351
0.00385128
0.00388849
0.0039251
0.00396109
0.00399645
0.00403114
0.00406513
0.00409842
0.00413097
0.00416276
0.00419377
0.00422398
0.00425338
0.00428193
0.00430963
0.00433646
0.0043624
0.00438743
0.00441154
0.00443472
0.00445696
0.00447824
0.00449856
0.0045179
0.00453626
0.00455363
0.00457015
0.00458569
0.0046002
0.0046137
0.00462608
0.00463759
0.00464807
0.00465754
0.004666
0.00467347
0.00467995
0.00468546
0.00469
0.00469357
0.0046962
0.00469788
0.00469863
0.00469845
0.00469736
0.00469537
0.00469248
0.00468872
0.00468409
0.0046786
0.00467228
0.00466513
0.00465717
0.00464841
0.00463887
0.00462856
0.00461751
0.00460574
0.00459325
0.00458006
0.00456618
0.00455159
0.0045363
0.00452032
0.0045037
0.0044865
0.0044688
0.00445067
0.0044322
0.00441348
0.00439459
0.00437557
0.00435632
0.00433633
0.00431417
0.00428761
9.50429e-06
7.98075e-05
0.000170195
0.000247785
0.000310224
0.000359781
0.000398772
0.000429699
0.000454668
0.000475416
0.000493347
0.000509573
0.000524956
0.000540143
0.000555609
0.000571689
0.000588611
0.00060652
0.000625513
0.000645656
0.000666973
0.000689434
0.00071301
0.000737654
0.000763299
0.000789927
0.000817551
0.00084613
0.000875612
0.000905944
0.000937072
0.000968946
0.00100152
0.00103475
0.00106861
0.00110304
0.001138
0.00117344
0.00120932
0.00124561
0.00128227
0.00131929
0.00135667
0.00139437
0.00143238
0.00147066
0.00150919
0.0015479
0.00158686
0.00162602
0.00166538
0.00170492
0.00174464
0.00178455
0.00182465
0.00186494
0.00190542
0.0019461
0.00198696
0.00202802
0.00206927
0.00211071
0.00215235
0.00219418
0.0022362
0.00227842
0.00232082
0.00236341
0.00240618
0.00244913
0.00249226
0.00253556
0.00257902
0.00262264
0.0026664
0.0027103
0.00275432
0.00279846
0.0028427
0.00288702
0.00293142
0.00297587
0.00302036
0.00306487
0.00310938
0.00315387
0.00319831
0.00324269
0.00328698
0.00333116
0.00337519
0.00341906
0.00346274
0.0035062
0.00354941
0.00359235
0.00363499
0.00367729
0.00371924
0.0037608
0.00380194
0.00384264
0.00388288
0.00392261
0.00396182
0.00400048
0.00403856
0.00407604
0.00411288
0.00414906
0.00418457
0.00421936
0.00425342
0.00428672
0.00431925
0.00435098
0.00438188
0.00441194
0.00444115
0.00446947
0.0044969
0.00452342
0.004549
0.00457365
0.00459735
0.00462008
0.00464183
0.00466259
0.00468236
0.00470116
0.00471904
0.00473589
0.00475177
0.00476663
0.00478046
0.00479334
0.00480517
0.00481595
0.00482572
0.0048345
0.00484228
0.00484908
0.00485491
0.00485976
0.00486366
0.0048666
0.00486861
0.00486969
0.00486984
0.00486909
0.00486743
0.00486489
0.00486147
0.00485718
0.00485204
0.00484606
0.00483925
0.00483162
0.00482319
0.00481397
0.00480399
0.00479325
0.00478177
0.00476956
0.00475664
0.00474302
0.00472869
0.00471368
0.00469803
0.00468178
0.00466502
0.00464781
0.00463025
0.00461243
0.00459446
0.0045764
0.0045582
0.00453948
0.00451914
0.00449601
9.99181e-06
7.99843e-05
0.000173486
0.000255392
0.000321871
0.000375259
0.000417656
0.000451606
0.000479267
0.000502419
0.000522508
0.000540679
0.000557826
0.000574625
0.00059158
0.000609065
0.000627317
0.000646458
0.00066655
0.000687584
0.000709647
0.000732799
0.000757041
0.000782352
0.000808724
0.000836149
0.000864561
0.000893877
0.000924036
0.000954987
0.000986679
0.00101907
0.0010521
0.00108575
0.00111996
0.00115467
0.00118985
0.00122546
0.00126147
0.00129785
0.00133459
0.00137164
0.00140899
0.00144661
0.00148448
0.00152259
0.00156094
0.0015996
0.0016385
0.00167754
0.00171668
0.00175593
0.0017953
0.00183481
0.00187447
0.00191428
0.00195426
0.0019944
0.00203472
0.00207521
0.00211589
0.00215676
0.00219782
0.00223908
0.00228055
0.00232222
0.0023641
0.0024062
0.00244852
0.00249105
0.0025338
0.00257677
0.00261994
0.00266333
0.00270691
0.00275069
0.00279466
0.0028388
0.00288311
0.00292757
0.00297216
0.00301688
0.0030617
0.0031066
0.00315157
0.00319658
0.00324162
0.00328664
0.00333164
0.00337659
0.00342145
0.0034662
0.00351081
0.00355526
0.0035995
0.00364352
0.00368728
0.00373074
0.00377389
0.00381668
0.00385909
0.00390109
0.00394265
0.00398372
0.0040243
0.00406434
0.00410383
0.00414272
0.00418099
0.00421861
0.00425556
0.00429181
0.00432734
0.00436211
0.0043961
0.0044293
0.00446168
0.00449321
0.00452389
0.00455368
0.00458257
0.00461055
0.0046376
0.00466369
0.00468883
0.004713
0.00473618
0.00475837
0.00477956
0.00479976
0.00481898
0.0048372
0.00485448
0.00487074
0.00488599
0.00490034
0.00491353
0.00492566
0.00493679
0.00494693
0.00495607
0.00496423
0.00497142
0.00497763
0.00498289
0.0049872
0.00499057
0.004993
0.00499452
0.00499513
0.00499483
0.00499365
0.00499159
0.00498865
0.00498486
0.00498022
0.00497474
0.00496843
0.00496131
0.00495338
0.00494467
0.00493517
0.00492492
0.00491392
0.00490218
0.00488972
0.00487656
0.0048627
0.00484819
0.00483308
0.00481742
0.00480129
0.00478479
0.00476802
0.0047511
0.00473411
0.00471705
0.00469962
0.00468099
0.00466073
1.04079e-05
7.93075e-05
0.000174747
0.000260114
0.00033012
0.000387017
0.000432646
0.000469523
0.000499818
0.000525332
0.000547534
0.000567605
0.000586462
0.000604756
0.000622961
0.000641375
0.000660341
0.000680104
0.000700809
0.000722573
0.000745461
0.000769404
0.000794368
0.000820327
0.000847247
0.000875068
0.000903707
0.000933145
0.000963345
0.000994262
0.00102585
0.00105807
0.00109087
0.00112421
0.00115804
0.00119233