/*--------------------------------*- C++ -*----------------------------------*\
| =========                 |                                                 |
| \\      /  F ield         | OpenFOAM: The Open Source CFD Toolbox           |
|  \\    /   O peration     | Version:  2.3.0                                 |
|   \\  /    A nd           | Web:      www.OpenFOAM.org                      |
|    \\/     M anipulation  |                                                 |
\*---------------------------------------------------------------------------*/
FoamFile
{
    version     2.0;
    format      ascii;
    class       volScalarField;
    location    "0";
    object      nut;
}
// * * * * * * * * * * * * * * * * * * * * * * * * * * * * * * * * * * * * * //

dimensions      [0 2 -1 0 0 0 0];

internalField   nonuniform List<scalar> 
12225
(
3.09428e-05
3.71944e-05
4.0947e-05
4.3145e-05
4.43824e-05
4.5024e-05
4.52963e-05
4.53419e-05
4.52504e-05
4.50785e-05
4.48617e-05
4.46222e-05
4.43743e-05
4.41265e-05
4.38841e-05
4.365e-05
4.34224e-05
4.32212e-05
0.000116613
6.93679e-05
5.16049e-05
4.24146e-05
3.71538e-05
3.39209e-05
3.18288e-05
3.04301e-05
2.94807e-05
2.88382e-05
2.84145e-05
2.81523e-05
2.80128e-05
2.79689e-05
2.80006e-05
2.80918e-05
2.82287e-05
2.83723e-05
0.000365112
0.000223242
0.000162457
0.000127914
0.000106039
9.12437e-05
8.07024e-05
7.28774e-05
6.68793e-05
6.21632e-05
5.83793e-05
5.52935e-05
5.27439e-05
5.06149e-05
4.88202e-05
4.72894e-05
4.59522e-05
4.47825e-05
0.00064461
0.000479077
0.000378699
0.000313447
0.000268352
0.000235786
0.000211394
0.000192559
0.000177644
0.000165582
0.000155652
0.00014735
0.000140319
0.000134294
0.000129077
0.000124514
0.000120482
0.000116973
0.000789269
0.000696798
0.000611915
0.000542049
0.000486074
0.000441339
0.0004053
0.00037592
0.00035167
0.000331412
0.0003143
0.000299698
0.000287124
0.000276206
0.000266654
0.000258242
0.000250801
0.000244303
0.000836146
0.000802042
0.000758902
0.000713886
0.000670963
0.000631878
0.000597095
0.000566459
0.000539571
0.000515973
0.000495218
0.000476908
0.000460696
0.00044629
0.00043344
0.000421944
0.000411643
0.000402523
0.000848366
0.000838516
0.000822833
0.000802885
0.000780484
0.000757157
0.000733986
0.000711649
0.000690524
0.000670788
0.000652493
0.000635616
0.000620093
0.000605836
0.000592755
0.000580757
0.00056977
0.000559844
0.000850836
0.000847527
0.000841611
0.000833095
0.000822395
0.000810101
0.000796808
0.000783023
0.000769142
0.000755456
0.000742163
0.000729394
0.000717225
0.000705696
0.000694824
0.000684608
0.000675047
0.000666259
0.000851475
0.000850225
0.000848
0.000844577
0.000839911
0.000834106
0.000827351
0.000819869
0.00081188
0.000803584
0.00079515
0.000786711
0.000778375
0.00077022
0.000762306
0.000754674
0.000747363
0.000740504
0.000851641
0.00085103
0.00085015
0.000848866
0.000847085
0.000844763
0.000841907
0.000838557
0.000834779
0.000830651
0.000826251
0.000821655
0.000816935
0.00081215
0.000807354
0.000802591
0.000797905
0.000793402
0.000851672
0.000851219
0.000850723
0.000850137
0.000849415
0.000848519
0.000847423
0.000846115
0.000844598
0.00084288
0.000840981
0.000838924
0.000836735
0.000834439
0.000832063
0.000829632
0.000827172
0.000824751
0.000851674
0.000851249
0.000850836
0.000850423
0.000849995
0.000849538
0.000849038
0.000848483
0.000847866
0.000847182
0.000846428
0.000845608
0.000844723
0.000843781
0.000842786
0.000841748
0.000840676
0.000839603
0.000851671
0.000851248
0.000850846
0.000850463
0.000850095
0.000849737
0.000849385
0.000849033
0.000848679
0.000848317
0.000847946
0.000847562
0.000847166
0.000846755
0.000846331
0.000845894
0.000845447
0.000845007
0.000851668
0.000851243
0.000850841
0.00085046
0.000850099
0.000849755
0.000849428
0.000849115
0.000848814
0.000848523
0.000848242
0.000847968
0.0008477
0.000847438
0.000847181
0.000846927
0.000846679
0.000846448
0.000851666
0.000851239
0.000850835
0.000850452
0.00085009
0.000849746
0.00084942
0.00084911
0.000848815
0.000848534
0.000848266
0.00084801
0.000847765
0.000847531
0.000847306
0.00084709
0.000846884
0.0008467
0.000851665
0.000851236
0.000850831
0.000850447
0.000850083
0.000849737
0.000849409
0.000849098
0.000848802
0.00084852
0.000848252
0.000847996
0.000847752
0.00084752
0.000847297
0.000847085
0.000846885
0.000846706
0.000851664
0.000851235
0.000850828
0.000850443
0.000850078
0.000849731
0.000849402
0.000849089
0.000848791
0.000848508
0.000848238
0.000847981
0.000847736
0.000847502
0.000847278
0.000847065
0.000846863
0.000846684
0.000851664
0.000851234
0.000850827
0.000850442
0.000850076
0.000849728
0.000849398
0.000849085
0.000848786
0.000848502
0.000848231
0.000847973
0.000847726
0.000847491
0.000847266
0.000847052
0.000846849
0.000846669
0.000851664
0.000851235
0.000850828
0.000850442
0.000850076
0.000849729
0.000849399
0.000849085
0.000848786
0.000848501
0.00084823
0.00084797
0.000847723
0.000847486
0.00084726
0.000847044
0.00084684
0.000846658
0.000851665
0.000851236
0.00085083
0.000850444
0.000850079
0.000849731
0.000849401
0.000849086
0.000848785
0.000848498
0.000848222
0.000847958
0.000847704
0.000847459
0.000847223
0.000846995
0.000846777
0.000846579
0.000851666
0.000851238
0.000850832
0.000850446
0.000850078
0.000849725
0.000849384
0.000849054
0.000848731
0.000848414
0.0008481
0.000847788
0.000847476
0.000847164
0.00084685
0.000846535
0.00084622
0.000845917
0.000851667
0.000851237
0.000850823
0.000850417
0.00085001
0.000849592
0.000849154
0.000848688
0.000848189
0.000847651
0.000847073
0.000846453
0.000845792
0.000845093
0.000844357
0.000843588
0.000842793
0.000841991
0.000851661
0.000851195
0.000850681
0.000850075
0.000849336
0.000848431
0.000847339
0.000846051
0.000844568
0.000842899
0.000841061
0.000839072
0.000836955
0.00083473
0.000832421
0.000830047
0.000827632
0.000825218
0.00085157
0.000850737
0.000849405
0.000847416
0.000844692
0.000841229
0.000837082
0.000832341
0.000827114
0.000821513
0.000815641
0.000809593
0.000803453
0.000797288
0.000791155
0.0007851
0.000779162
0.000773414
0.000850707
0.000847137
0.000840905
0.000832091
0.000821121
0.000808562
0.000794982
0.000780866
0.000766599
0.000752465
0.000738666
0.000725338
0.000712564
0.000700393
0.000688844
0.000677921
0.000667615
0.000657968
0.000844113
0.000825224
0.00079853
0.000767732
0.00073565
0.000704135
0.000674225
0.000646408
0.00062084
0.000597497
0.000576261
0.000556972
0.000539453
0.000523534
0.00050905
0.000495854
0.000483815
0.00047286
0.000803425
0.000727158
0.00065272
0.000587767
0.000532945
0.000487162
0.000448907
0.000416763
0.00038956
0.000366363
0.000346435
0.000329196
0.000314183
0.000301027
0.000289435
0.000279168
0.000270036
0.000261904
0.000625871
0.000466125
0.000370237
0.000306332
0.000260964
0.000227483
0.000201987
0.000182061
0.000166157
0.00015324
0.00014259
0.000133698
0.00012619
0.000119789
0.000114285
0.000109519
0.00010537
0.000101761
0.000254186
0.000158464
0.000118168
9.48477e-05
7.98521e-05
6.96493e-05
6.24038e-05
5.70869e-05
5.30854e-05
5.00132e-05
4.76163e-05
4.57217e-05
4.42084e-05
4.29895e-05
4.20014e-05
4.1197e-05
4.0541e-05
4.00127e-05
3.69327e-05
4.20256e-05
4.57632e-05
4.86729e-05
5.10793e-05
5.30434e-05
5.4625e-05
5.58815e-05
5.68653e-05
5.76232e-05
5.81955e-05
5.86165e-05
5.8915e-05
5.91148e-05
5.92356e-05
5.92936e-05
5.93022e-05
5.92712e-05
3.3668e-06
8.53344e-06
9.48918e-06
1.01939e-05
1.07969e-05
1.13627e-05
1.1927e-05
1.26348e-05
1.35743e-05
1.46241e-05
1.57311e-05
1.68581e-05
1.79853e-05
1.91028e-05
2.02052e-05
2.12896e-05
2.23548e-05
2.34005e-05
2.44271e-05
2.54353e-05
2.64261e-05
2.74007e-05
2.83602e-05
2.93059e-05
3.02391e-05
3.1161e-05
3.20727e-05
3.29755e-05
3.38704e-05
3.47584e-05
3.56408e-05
3.65184e-05
3.73923e-05
3.82634e-05
3.9133e-05
4.0002e-05
4.08717e-05
4.17435e-05
4.2619e-05
4.35001e-05
4.4389e-05
4.52886e-05
4.62027e-05
4.71356e-05
4.80934e-05
4.90585e-05
5.00275e-05
5.10004e-05
5.19772e-05
5.2958e-05
5.39427e-05
5.49313e-05
5.59236e-05
5.69194e-05
5.79187e-05
5.89212e-05
5.99267e-05
6.09349e-05
6.19454e-05
6.29581e-05
6.39726e-05
6.49884e-05
6.60053e-05
6.70229e-05
6.80406e-05
6.90581e-05
7.0075e-05
7.10906e-05
7.21047e-05
7.31166e-05
7.41259e-05
7.51319e-05
7.61343e-05
7.71323e-05
7.81255e-05
7.91133e-05
8.0095e-05
8.10701e-05
8.2038e-05
8.29979e-05
8.39493e-05
8.48915e-05
8.58239e-05
8.67456e-05
8.7656e-05
8.85544e-05
8.94399e-05
9.03119e-05
9.11695e-05
9.20118e-05
9.28382e-05
9.36477e-05
9.44394e-05
9.52128e-05
9.59669e-05
9.67011e-05
9.74149e-05
9.8108e-05
9.87803e-05
9.94321e-05
0.000100065
0.00010068
0.000101281
0.000101864
0.000102419
0.000102947
0.000103449
0.000103923
0.000104371
0.000104791
0.000105184
0.00010555
0.000105889
0.0001062
0.000106484
0.00010674
0.000106969
0.00010717
0.000107344
0.00010749
0.000107609
0.000107701
0.000107766
0.000107803
0.000107814
0.000107797
0.000107755
0.000107686
0.000107591
0.00010747
0.000107323
0.000107151
0.000106954
0.000106732
0.000106486
0.000106216
0.000105922
0.000105605
0.000105265
0.000104903
0.000104518
0.000104111
0.000103683
0.000103235
0.000102765
0.000102276
0.000101767
0.000101238
0.000100691
0.000100125
9.9541e-05
9.89395e-05
9.83208e-05
9.76845e-05
9.7032e-05
9.63625e-05
9.56776e-05
9.49779e-05
9.42614e-05
9.35316e-05
9.27844e-05
9.2024e-05
9.12666e-05
9.05293e-05
9.00342e-05
8.95973e-05
8.91616e-05
8.87204e-05
8.82722e-05
8.78164e-05
8.73527e-05
8.68806e-05
8.6399e-05
8.59058e-05
8.5397e-05
8.48631e-05
8.42893e-05
8.36237e-05
8.27966e-05
8.14135e-05
4.70239e-06
1.95169e-05
3.90237e-05
5.32887e-05
6.12591e-05
6.543e-05
6.79038e-05
6.97651e-05
7.15908e-05
7.36934e-05
7.61524e-05
7.89619e-05
8.2094e-05
8.5519e-05
8.921e-05
9.31425e-05
9.72949e-05
0.000101648
0.000106184
0.000110887
0.000115745
0.000120745
0.000125876
0.000131129
0.000136496
0.000141969
0.00014754
0.000153205
0.000158959
0.000164795
0.000170711
0.000176701
0.000182763
0.000188893
0.000195087
0.000201342
0.000207653
0.000214016
0.000220427
0.000226881
0.000233374
0.000239901
0.000246462
0.000253058
0.000259697
0.000266404
0.000273191
0.000280064
0.000287028
0.000294089
0.000301248
0.000308509
0.000315873
0.000323344
0.000330921
0.000338606
0.0003464
0.000354303
0.000362317
0.00037044
0.000378672
0.000387013
0.000395462
0.000404017
0.000412678
0.000421442
0.000430308
0.000439273
0.000448336
0.000457492
0.00046674
0.000476076
0.000485498
0.000495001
0.000504584
0.000514241
0.000523969
0.000533765
0.000543625
0.000553544
0.000563519
0.000573545
0.000583618
0.000593733
0.000603885
0.000614068
0.000624277
0.000634504
0.000644741
0.000654981
0.000665214
0.000675427
0.00068561
0.000695747
0.000705823
0.00071582
0.000725716
0.000735491
0.000745116
0.000754564
0.000763798
0.000772777
0.000781417
0.00078953
0.000797422
0.000805128
0.00081265
0.000819986
0.000827133
0.00083409
0.000840854
0.000847421
0.000853789
0.000859955
0.000865918
0.000871676
0.000877224
0.000882563
0.00088769
0.000892602
0.0008973
0.000901781
0.000906045
0.000910091
0.000913919
0.000917529
0.000920923
0.000924099
0.000927059
0.000929802
0.00093233
0.000934643
0.000936743
0.000938632
0.000940312
0.000941785
0.000943052
0.000944113
0.000944972
0.000945631
0.000946093
0.00094636
0.000946433
0.000946312
0.000946003
0.000945507
0.000944824
0.000943955
0.000942905
0.000941676
0.000940262
0.000938672
0.000936905
0.000934959
0.000932838
0.00093054
0.000928062
0.000925422
0.000922589
0.000919601
0.000916442
0.000913006
0.000909162
0.000904198
0.000897078
0.000889159
0.000880928
0.000872525
0.000863998
0.000855368
0.000846649
0.00083785
0.000828975
0.000820024
0.000810988
0.000801838
0.000792506
0.000782853
0.000771961
0.000750349
5.62776e-06
3.31941e-05
6.56528e-05
8.81535e-05
0.000102343
0.000111308
0.000117475
0.000122454
0.000127204
0.000132221
0.000137711
0.000143729
0.000150269
0.000157299
0.000164785
0.000172692
0.000180986
0.000189635
0.000198612
0.000207888
0.00021744
0.000227245
0.000237283
0.000247537
0.00025799
0.000268629
0.000279441
0.000290416
0.000301545
0.000312821
0.000324236
0.000335787
0.000347468
0.000359276
0.000371209
0.000383264
0.00039544
0.000407738
0.000420156
0.000432698
0.000445366
0.000458165
0.000471102
0.000484187
0.000497432
0.000510852
0.000524458
0.000538259
0.000552264
0.000566478
0.000580908
0.000595558
0.000610432
0.000625534
0.000640867
0.000656432
0.000672231
0.000688266
0.000704535
0.00072104
0.000737779
0.00075475
0.000771951
0.000789379
0.000807032
0.000824905
0.000842992
0.00086129
0.000879793
0.000898493
0.000917385
0.00093646
0.000955712
0.000975131
0.000994709
0.00101444
0.00103431
0.00105431
0.00107443
0.00109466
0.00111499
0.00113541
0.0011559
0.00117646
0.00119707
0.00121771
0.00123838
0.00125905
0.00127971
0.00130034
0.00132092
0.00134142
0.00136181
0.00138208
0.00140218
0.00142208
0.00144175
0.00146114
0.00148021
0.00149892
0.00151722
0.00153507
0.00155214
0.00156864
0.00158472
0.0016004
0.00161568
0.00163057
0.00164505
0.00165912
0.00167278
0.00168602
0.00169883
0.00171121
0.00172316
0.00173466
0.00174573
0.00175634
0.00176651
0.00177622
0.00178547
0.00179426
0.00180259
0.00181046
0.00181787
0.00182482
0.00183131
0.00183735
0.00184292
0.00184805
0.00185271
0.00185693
0.00186071
0.00186404
0.00186694
0.00186941
0.00187145
0.00187306
0.00187426
0.00187505
0.00187543
0.00187541
0.001875
0.00187419
0.001873
0.00187143
0.00186949
0.00186717
0.00186448
0.00186143
0.00185802
0.00185425
0.00185013
0.00184566
0.00184083
0.00183566
0.00183014
0.0018243
0.00181811
0.00181159
0.00180473
0.00179739
0.00178934
0.00177996
0.00176851
0.00175588
0.00174259
0.00172887
0.00171484
0.00170054
0.00168601
0.00167125
0.00165629
0.00164112
0.00162569
0.00160994
0.00159365
0.00157631
0.00155613
0.00152449
6.29899e-06
4.48851e-05
8.67985e-05
0.000116973
0.000137398
0.00015142
0.000161755
0.000170309
0.000178293
0.000186396
0.000194956
0.000204109
0.000213884
0.000224265
0.000235216
0.000246693
0.000258657
0.000271065
0.000283883
0.000297075
0.000310611
0.000324463
0.000338606
0.000353019
0.000367683
0.000382583
0.000397703
0.000413035
0.000428567
0.000444294
0.000460211
0.000476312
0.000492598
0.000509066
0.000525718
0.000542556
0.000559583
0.000576802
0.00059422
0.000611843
0.00062968
0.000647739
0.000666031
0.000684566
0.000703357
0.000722414
0.00074175
0.000761372
0.000781289
0.00080151
0.00082204
0.000842886
0.000864052
0.000885542
0.000907359
0.000929505
0.000951982
0.000974791
0.000997929
0.0010214
0.00104519
0.00106931
0.00109375
0.00111851
0.00114357
0.00116893
0.00119459
0.00122054
0.00124676
0.00127325
0.00129999
0.00132698
0.00135419
0.00138162
0.00140926
0.00143708
0.00146507
0.00149322
0.00152151
0.00154992
0.00157843
0.00160703
0.00163569
0.0016644
0.00169313
0.00172187
0.00175058
0.00177926
0.00180787
0.00183638
0.00186476
0.00189299
0.00192103
0.00194885
0.00197639
0.00200363
0.00203052
0.002057
0.00208303
0.00210857
0.00213355
0.00215792
0.00218144
0.00220431
0.0022266
0.00224832
0.00226949
0.0022901
0.00231014
0.00232961
0.00234849
0.00236679
0.00238449
0.00240159
0.00241808
0.00243396
0.00244922
0.00246386
0.00247787
0.00249124
0.00250398
0.00251609
0.00252755
0.00253838
0.00254857
0.00255812
0.00256703
0.00257532
0.00258298
0.00259001
0.00259642
0.00260221
0.0026074
0.00261198
0.00261596
0.00261936
0.00262217
0.00262441
0.00262609
0.0026272
0.00262777
0.0026278
0.0026273
0.00262627
0.00262472
0.00262266
0.0026201
0.00261704
0.00261349
0.00260945
0.00260492
0.00259992
0.00259445
0.00258849
0.00258207
0.00257519
0.00256785
0.00256005
0.0025518
0.00254308
0.00253387
0.00252403
0.00251336
0.00250145
0.0024879
0.00247314
0.00245754
0.00244133
0.00242462
0.0024075
0.00238999
0.00237213
0.00235394
0.0023354
0.00231649
0.00229708
0.00227691
0.0022553
0.0022303
0.0021958
7.07123e-06
5.23658e-05
0.000103314
0.000141409
0.000168314
0.000187609
0.000202285
0.000214506
0.000225707
0.000236761
0.000248146
0.000260091
0.00027268
0.000285922
0.000299792
0.000314249
0.000329249
0.000344747
0.000360703
0.000377079
0.000393842
0.000410961
0.00042841
0.000446167
0.000464213
0.000482532
0.000501111
0.00051994
0.000539011
0.000558318
0.000577859
0.000597631
0.000617636
0.000637875
0.000658352
0.000679071
0.000700038
0.000721262
0.000742749
0.00076451
0.000786553
0.000808891
0.000831533
0.000854491
0.000877775
0.000901397
0.000925366
0.000949691
0.000974382
0.000999445
0.00102489
0.00105072
0.00107693
0.00110354
0.00113055
0.00115796
0.00118576
0.00121396
0.00124256
0.00127155
0.00130093
0.00133069
0.00136083
0.00139135
0.00142222
0.00145345
0.00148502
0.00151693
0.00154915
0.00158167
0.00161448
0.00164756
0.0016809
0.00171447
0.00174826
0.00178224
0.0018164
0.00185071
0.00188516
0.00191971
0.00195434
0.00198903
0.00202375
0.00205848
0.00209319
0.00212784
0.00216243
0.0021969
0.00223125
0.00226542
0.0022994
0.00233313
0.0023666
0.00239976
0.00243256
0.00246497
0.00249693
0.00252841
0.00255934
0.00258969
0.00261942
0.00264834
0.00267644
0.00270381
0.00273051
0.00275654
0.0027819
0.0028066
0.00283061
0.00285394
0.00287658
0.00289852
0.00291975
0.00294026
0.00296005
0.00297911
0.00299743
0.00301501
0.00303185
0.00304794
0.00306328
0.00307785
0.00309168
0.00310474
0.00311706
0.00312862
0.00313943
0.0031495
0.00315882
0.00316742
0.00317528
0.00318242
0.00318884
0.00319456
0.00319959
0.00320392
0.00320759
0.00321059
0.00321293
0.00321462
0.00321569
0.00321614
0.00321597
0.00321519
0.00321383
0.00321188
0.00320936
0.00320626
0.00320261
0.0031984
0.00319363
0.00318832
0.00318246
0.00317606
0.00316913
0.00316165
0.00315364
0.00314508
0.00313599
0.00312634
0.00311608
0.00310513
0.00309332
0.0030804
0.00306616
0.00305078
0.00303448
0.00301746
0.00299981
0.00298161
0.00296291
0.00294374
0.00292414
0.0029041
0.00288359
0.00286251
0.00284059
0.00281717
0.00279058
0.00275697
7.93842e-06
5.65121e-05
0.000115557
0.0001616
0.000195158
0.000219889
0.000239023
0.000254956
0.000269331
0.000283196
0.00029717
0.000311583
0.00032659
0.000342241
0.000358532
0.000375435
0.000392908
0.00041091
0.000429399
0.000448337
0.00046769
0.000487427
0.000507524
0.000527958
0.00054871
0.000569766
0.000591114
0.000612746
0.000634654
0.000656835
0.000679287
0.000702011
0.000725009
0.000748284
0.000771841
0.000795687
0.00081983
0.000844278
0.000869041
0.000894128
0.000919551
0.000945319
0.000971444
0.000997936
0.00102481
0.00105206
0.00107972
0.00110778
0.00113626
0.00116515
0.00119448
0.00122423
0.00125443
0.00128506
0.00131613
0.00134765
0.00137961
0.00141201
0.00144485
0.00147812
0.00151181
0.00154593
0.00158046
0.00161539
0.00165072
0.00168643
0.0017225
0.00175893
0.00179569
0.00183277
0.00187016
0.00190782
0.00194574
0.0019839
0.00202228
0.00206084
0.00209957
0.00213843
0.00217741
0.00221646
0.00225556
0.00229469
0.00233381
0.00237288
0.00241189
0.00245079
0.00248956
0.00252816
0.00256656
0.00260473
0.00264262
0.00268021
0.00271747
0.00275434
0.00279079
0.00282678
0.00286226
0.00289719
0.00293152
0.00296521
0.00299821
0.00303031
0.0030616
0.00309214
0.00312194
0.00315101
0.00317934
0.00320694
0.0032338
0.00325989
0.00328523
0.00330979
0.00333357
0.00335656
0.00337876
0.00340015
0.00342073
0.00344049
0.00345943
0.00347755
0.00349483
0.00351128
0.0035269
0.00354169
0.00355565
0.00356878
0.00358109
0.00359258
0.00360326
0.00361314
0.00362222
0.0036305
0.00363802
0.00364476
0.00365076
0.00365601
0.00366053
0.00366434
0.00366744
0.00366985
0.00367159
0.00367267
0.00367309
0.00367288
0.00367205
0.0036706
0.00366854
0.00366588
0.00366264
0.00365881
0.0036544
0.00364943
0.00364387
0.00363773
0.00363102
0.00362374
0.00361588
0.00360744
0.00359842
0.00358877
0.00357848
0.00356746
0.00355559
0.00354272
0.00352873
0.00351368
0.0034977
0.00348092
0.00346342
0.00344527
0.00342653
0.00340723
0.00338741
0.00336708
0.00334624
0.00332481
0.00330256
0.00327894
0.00325268
0.00322141
8.69347e-06
5.89686e-05
0.000124593
0.000177961
0.000217981
0.000248119
0.000271726
0.000291371
0.00030887
0.000325428
0.000341799
0.000358419
0.00037552
0.000393204
0.000411501
0.000430402
0.000449878
0.000469892
0.000490408
0.000511389
0.000532803
0.000554621
0.000576818
0.000599373
0.000622271
0.000645495
0.000669038
0.000692889
0.000717046
0.000741504
0.000766263
0.000791325
0.000816693
0.000842372
0.000868367
0.000894685
0.000921336
0.000948327
0.000975669
0.00100337
0.00103144
0.0010599
0.00108875
0.00111799
0.00114765
0.00117774
0.00120825
0.0012392
0.00127059
0.00130244
0.00133474
0.0013675
0.00140073
0.00143443
0.00146859
0.00150322
0.00153832
0.00157389
0.00160991
0.00164639
0.00168331
0.00172067
0.00175847
0.00179668
0.0018353
0.00187431
0.0019137
0.00195345
0.00199355
0.00203397
0.00207469
0.00211569
0.00215695
0.00219844
0.00224014
0.00228201
0.00232403
0.00236617
0.0024084
0.00245068
0.00249299
0.00253528
0.00257753
0.00261969
0.00266174
0.00270364
0.00274536
0.00278685
0.00282809
0.00286904
0.00290966
0.00294993
0.0029898
0.00302924
0.00306821
0.00310667
0.00314459
0.00318191
0.0032186
0.0032546
0.00328984
0.00332421
0.00335777
0.00339056
0.00342258
0.00345385
0.00348435
0.00351408
0.00354302
0.00357116
0.0035985
0.00362502
0.00365072
0.00367558
0.0036996
0.00372277
0.00374508
0.00376652
0.00378709
0.00380678
0.00382559
0.00384351
0.00386055
0.00387671
0.00389198
0.00390638
0.00391991
0.00393257
0.00394438
0.00395533
0.00396544
0.00397472
0.00398319
0.00399085
0.00399773
0.00400384
0.00400919
0.00401379
0.00401767
0.00402085
0.00402334
0.00402515
0.0040263
0.0040268
0.00402669
0.00402596
0.00402461
0.00402266
0.00402016
0.00401705
0.00401336
0.0040091
0.00400427
0.00399886
0.00399289
0.00398634
0.0039792
0.00397149
0.00396316
0.00395421
0.00394459
0.00393424
0.00392307
0.00391099
0.00389791
0.00388384
0.00386885
0.00385301
0.0038364
0.00381906
0.00380106
0.00378243
0.00376321
0.00374344
0.00372314
0.00370224
0.0036806
0.00365779
0.00363287
0.00360439
9.33709e-06
6.02653e-05
0.000131015
0.00019086
0.000236928
0.000272282
0.000300269
0.000323562
0.000344111
0.000363252
0.00038186
0.000400475
0.000419405
0.000438814
0.000458773
0.000479298
0.00050038
0.000521992
0.000544105
0.000566688
0.000589711
0.000613147
0.000636975
0.000661174
0.000685729
0.000710629
0.000735862
0.000761424
0.000787309
0.000813516
0.000840044
0.000866897
0.000894077
0.000921589
0.000949441
0.000977638
0.00100619
0.00103511
0.00106439
0.00109406
0.00112412
0.00115459
0.00118546
0.00121676
0.00124849
0.00128065
0.00131326
0.00134633
0.00137986
0.00141385
0.00144832
0.00148325
0.00151867
0.00155457
0.00159094
0.0016278
0.00166513
0.00170294
0.00174121
0.00177995
0.00181914
0.00185878
0.00189885
0.00193935
0.00198026
0.00202157
0.00206326
0.00210532
0.00214772
0.00219045
0.00223348
0.00227679
0.00232036
0.00236416
0.00240815
0.00245232
0.00249663
0.00254104
0.00258553
0.00263006
0.00267459
0.00271909
0.00276352
0.00280784
0.00285202
0.00289601
0.00293978
0.00298329
0.00302651
0.0030694
0.00311192
0.00315405
0.00319574
0.00323697
0.0032777
0.00331789
0.00335751
0.00339651
0.00343487
0.00347252
0.00350935
0.00354537
0.00358061
0.00361509
0.0036488
0.00368175
0.00371391
0.00374529
0.00377586
0.00380562
0.00383454
0.00386263
0.00388987
0.00391624
0.00394174
0.00396635
0.00399007
0.00401289
0.0040348
0.0040558
0.00407587
0.00409503
0.00411325
0.00413056
0.00414695
0.00416242
0.00417699
0.00419066
0.00420343
0.00421532
0.00422634
0.0042365
0.00424581
0.00425431
0.004262
0.0042689
0.00427503
0.0042804
0.00428504
0.00428898
0.00429224
0.00429482
0.00429673
0.00429802
0.00429872
0.00429881
0.0042983
0.00429722
0.00429558
0.00429338
0.00429063
0.00428734
0.00428351
0.00427914
0.00427423
0.00426878
0.00426276
0.00425618
0.00424901
0.00424122
0.00423278
0.00422364
0.00421372
0.00420294
0.00419125
0.00417863
0.00416511
0.00415072
0.00413552
0.00411954
0.00410284
0.00408545
0.00406743
0.00404882
0.00402965
0.00400991
0.0039895
0.00396811
0.00394504
0.00391936
9.88252e-06
6.06924e-05
0.000135248
0.000200643
0.000252219
0.000292481
0.000324664
0.000351482
0.00037497
0.000396575
0.000417273
0.000437697
0.000458235
0.000479109
0.000500436
0.000522266
0.000544611
0.000567461
0.000590795
0.00061459
0.000638821
0.000663465
0.000688502
0.000713914
0.000739687
0.000765811
0.000792277
0.000819078
0.000846212
0.000873677
0.000901474
0.000929605
0.000958073
0.000986884
0.00101604
0.00104556
0.00107544
0.00110569
0.00113632
0.00116734
0.00119876
0.00123059
0.00126284
0.00129551
0.00132862
0.00136216
0.00139616
0.00143062
0.00146553
0.00150092
0.00153678
0.00157311
0.00160992
0.0016472
0.00168497
0.00172322
0.00176194
0.00180114
0.00184081
0.00188094
0.00192152
0.00196256
0.00200403
0.00204593
0.00208825
0.00213097
0.00217408
0.00221756
0.00226139
0.00230555
0.00235003
0.00239479
0.00243981
0.00248507
0.00253054
0.00257619
0.00262198
0.00266789
0.00271387
0.0027599
0.00280593
0.00285192
0.00289784
0.00294364
0.00298928
0.00303473
0.00307993
0.00312486
0.00316948
0.00321374
0.00325761
0.00330106
0.00334406
0.00338657
0.00342856
0.00347001
0.00351087
0.0035511
0.00359068
0.00362954
0.00366763
0.00370496
0.00374155
0.0037774
0.0038125
0.00384684
0.0038804
0.00391317
0.00394513
0.00397627
0.00400657
0.00403601
0.00406459
0.00409228
0.00411908
0.00414497
0.00416994
0.00419399
0.0042171
0.00423926
0.00426047
0.00428073
0.00430003
0.00431837
0.00433576
0.00435221
0.00436772
0.0043823
0.00439596
0.0044087
0.00442055
0.00443151
0.00444161
0.00445087
0.00445932
0.00446697
0.00447383
0.00447993
0.0044853
0.00448997
0.004494
0.00449735
0.00450004
0.00450213
0.00450364
0.00450458
0.00450496
0.00450481
0.00450415
0.00450297
0.0045013
0.00449914
0.0044965
0.00449336
0.00448974
0.00448562
0.004481
0.00447585
0.00447015
0.00446387
0.00445697
0.00444941
0.00444112
0.00443204
0.00442211
0.0044113
0.00439961
0.00438705
0.00437365
0.00435945
0.00434447
0.00432877
0.00431239
0.00429538
0.0042778
0.00425966
0.00424089
0.0042213
0.00420033
0.00417735
1.03418e-05
6.04586e-05
0.00013765
0.000207655
0.000264122
0.000308902
0.000345027
0.000375188
0.000401472
0.000425401
0.000448039
0.000470099
0.000492041
0.000514149
0.000536585
0.000559434
0.000582735
0.000606495
0.000630707
0.000655356
0.000680423
0.00070589
0.00073174
0.000757957
0.00078453
0.000811448
0.000838703
0.000866291
0.000894208
0.000922454
0.000951028
0.000979934
0.00100917
0.00103875
0.00106868
0.00109895
0.00112959
0.00116059
0.00119197
0.00122373
0.00125588
0.00128843
0.00132139
0.00135477
0.00138857
0.00142281
0.00145748
0.0014926
0.00152817
0.0015642
0.00160069
0.00163765
0.00167507
0.00171296
0.00175133
0.00179017
0.00182948
0.00186926
0.0019095
0.00195021
0.00199138
0.002033
0.00207507
0.00211757
0.00216049
0.00220384
0.00224758
0.00229171
0.00233621
0.00238106
0.00242624
0.00247174
0.00251752
0.00256357
0.00260985
0.00265634
0.002703
0.00274979
0.0027967
0.00284366
0.00289065
0.00293763
0.00298455
0.00303136
0.00307803
0.00312451
0.00317075
0.00321672
0.00326236
0.00330765
0.00335254
0.00339699
0.00344098
0.00348448
0.00352745
0.00356987
0.0036117
0.00365291
0.00369346
0.00373333
0.00377251
0.003811
0.0038488
0.00388588
0.00392224
0.00395785
0.0039927
0.00402676
0.00406002
0.00409246
0.00412404
0.00415477
0.00418462
0.00421357
0.00424161
0.00426873
0.0042949
0.00432013
0.00434439
0.00436768
0.00438999
0.0044113
0.00443163
0.00445097
0.00446933
0.00448672
0.00450313
0.0045186
0.00453311
0.00454668
0.00455932
0.00457105
0.0045819
0.00459189
0.00460107
0.00460945
0.00461702
0.00462383
0.00462991
0.0046353
0.00464003
0.00464411
0.00464758
0.00465047
0.00465282
0.00465463
0.00465594
0.00465677
0.00465714
0.00465706
0.00465655
0.00465562
0.00465427
0.00465251
0.00465032
0.00464771
0.00464466
0.00464114
0.00463714
0.00463262
0.00462754
0.00462184
0.00461548
0.00460838
0.0046005
0.00459178
0.00458222
0.00457179
0.00456052
0.00454842
0.00453551
0.00452184
0.00450745
0.00449241
0.00447676
0.00446054
0.00444373
0.00442617
0.00440742
0.00438704
1.07251e-05
5.97292e-05
0.000138542
0.000212238
0.000272938
0.000321785
0.000361539
0.000394815
0.00042371
0.000449798
0.000474209
0.000497727
0.000520876
0.000543995
0.000567292
0.00059089
0.000614853
0.00063921
0.000663967
0.000689121
0.000714659
0.000740569
0.000766838
0.000793452
0.000820401
0.000847677
0.000875272
0.000903182
0.000931404
0.000959937
0.000988781
0.00101794
0.00104741
0.00107721
0.00110733
0.00113778
0.00116857
0.00119971
0.0012312
0.00126305
0.00129528
0.00132788
0.00136086
0.00139424
0.00142803
0.00146222
0.00149683
0.00153186
0.00156733
0.00160323
0.00163958
0.00167638
0.00171363
0.00175134
0.00178951
0.00182815
0.00186725
0.00190683
0.00194687
0.00198739
0.00202837
0.00206982
0.00211173
0.0021541
0.00219692
0.00224018
0.00228388
0.00232799
0.00237252
0.00241744
0.00246274
0.0025084
0.00255439
0.0026007
0.00264729
0.00269414
0.00274121
0.00278847
0.00283589
0.00288342
0.00293103
0.00297866
0.00302627
0.00307382
0.00312126
0.00316853
0.00321559
0.00326238
0.00330887
0.00335501
0.00340075
0.00344606
0.0034909
0.00353524
0.00357906
0.00362232
0.00366499
0.00370705
0.0037485
0.00378938
0.00382964
0.00386927
0.00390825
0.00394656
0.00398417
0.00402106
0.0040572
0.00409256
0.00412712
0.00416086
0.00419376
0.00422578
0.00425692
0.00428715
0.00431645
0.0043448
0.0043722
0.00439863
0.00442408
0.00444851
0.00447193
0.00449433
0.00451571
0.00453607
0.00455541
0.00457375
0.00459108
0.00460745
0.00462283
0.00463723
0.00465067
0.00466318
0.00467479
0.00468552
0.0046954
0.00470448
0.00471275
0.00472026
0.00472705
0.00473315
0.0047386
0.00474343
0.00474769
0.00475139
0.00475458
0.00475729
0.00475956
0.00476139
0.00476283
0.0047639
0.0047646
0.00476496
0.00476499
0.00476468
0.00476403
0.00476304
0.00476169
0.00475996
0.00475783
0.00475524
0.00475217
0.00474855
0.00474434
0.00473946
0.00473385
0.00472747
0.00472027
0.00471223
0.00470335
0.00469363
0.00468308
0.00467173
0.00465963
0.00464684
0.00463341
0.00461938
0.00460475
0.0045894
0.00457297
0.00455511
1.10415e-05
5.86403e-05
0.000138215
0.000214732
0.000278987
0.000331405
0.000374423
0.000410533
0.000441811
0.000469856
0.000495845
0.00052062
0.000544761
0.000568656
0.000592558
0.000616624
0.000640946
0.000665574
0.00069053
0.000715822
0.000741447
0.000767396
0.000793662
0.000820235
0.000847104
0.000874264
0.000901708
0.000929431
0.000957432
0.000985708
0.00101426
0.00104309
0.0010722
0.00110159