/*--------------------------------*- C++ -*----------------------------------*\
| =========                 |                                                 |
| \\      /  F ield         | OpenFOAM: The Open Source CFD Toolbox           |
|  \\    /   O peration     | Version:  v1706                                 |
|   \\  /    A nd           | Web:      www.OpenFOAM.com                      |
|    \\/     M anipulation  |                                                 |
\*---------------------------------------------------------------------------*/
FoamFile
{
    version     2.0;
    format      ascii;
    class       volVectorField;
    location    "0";
    object      U;
}
// * * * * * * * * * * * * * * * * * * * * * * * * * * * * * * * * * * * * * //

dimensions      [0 1 -1 0 0 0 0];


internalField   nonuniform List<vector> 
12225
(
(9.84026 -0.956929 0)
(9.59659 -0.890303 0)
(9.31634 -0.596465 0)
(9.01457 -0.371729 0)
(8.72553 -0.227359 0)
(8.46697 -0.139076 0)
(8.23982 -0.0853793 0)
(8.04167 -0.0524021 0)
(7.86961 -0.0319975 0)
(7.7206 -0.019161 0)
(7.59146 -0.011131 0)
(7.47914 -0.00611539 0)
(7.38142 -0.00305217 0)
(7.29634 -0.00128903 0)
(7.22223 -0.000362121 0)
(7.16005 -0.00069843 0)
(7.10028 0.00246311 0)
(7.07193 -0.0180422 0)
(10.0713 0.254377 0)
(10.1823 0.418426 0)
(10.2289 0.383662 0)
(10.2294 0.310045 0)
(10.2114 0.245429 0)
(10.1794 0.19521 0)
(10.1334 0.157449 0)
(10.0758 0.129477 0)
(10.0105 0.108683 0)
(9.94088 0.0929361 0)
(9.86927 0.0807807 0)
(9.79745 0.0711826 0)
(9.7265 0.0634018 0)
(9.65756 0.0569624 0)
(9.59102 0.0512229 0)
(9.52784 0.0466425 0)
(9.46854 0.0401714 0)
(9.41525 0.0403611 0)
(10.0041 0.0591977 0)
(10.0285 0.0487308 0)
(10.0619 0.0103601 0)
(10.0897 0.000321717 0)
(10.1152 0.008446 0)
(10.1377 0.0196579 0)
(10.1547 0.0292086 0)
(10.1657 0.0366587 0)
(10.1715 0.0421911 0)
(10.173 0.0460286 0)
(10.1711 0.048471 0)
(10.1663 0.0498241 0)
(10.1591 0.0503216 0)
(10.1502 0.0501139 0)
(10.1401 0.0492389 0)
(10.1291 0.0476986 0)
(10.1183 0.0452295 0)
(10.1062 0.0404762 0)
(9.99764 0.010938 0)
(10.0088 0.025799 0)
(10.0342 0.0385847 0)
(10.0554 0.0535947 0)
(10.0721 0.0650779 0)
(10.0875 0.0704003 0)
(10.1015 0.0715373 0)
(10.1134 0.0707671 0)
(10.1236 0.0691752 0)
(10.1326 0.0671944 0)
(10.1404 0.0650152 0)
(10.1473 0.0627631 0)
(10.1532 0.0604592 0)
(10.1585 0.0580837 0)
(10.1631 0.0555019 0)
(10.1674 0.0525742 0)
(10.1713 0.0488253 0)
(10.1742 0.0431579 0)
(9.99927 0.00740938 0)
(10.0087 0.033805 0)
(10.0279 0.0483744 0)
(10.0436 0.054946 0)
(10.0558 0.05841 0)
(10.0678 0.0595927 0)
(10.0793 0.0593607 0)
(10.0897 0.058615 0)
(10.0991 0.0577179 0)
(10.1077 0.0567073 0)
(10.1157 0.0555715 0)
(10.1232 0.0543063 0)
(10.1302 0.0528895 0)
(10.1369 0.0512645 0)
(10.1434 0.0493145 0)
(10.1495 0.0468826 0)
(10.1553 0.0436524 0)
(10.1605 0.0393179 0)
(10.0003 0.00955546 0)
(10.0085 0.0330147 0)
(10.0235 0.043994 0)
(10.0369 0.048379 0)
(10.0477 0.0518649 0)
(10.0585 0.0542733 0)
(10.069 0.0553106 0)
(10.0785 0.0554755 0)
(10.0871 0.0551631 0)
(10.0951 0.0545063 0)
(10.1026 0.0535577 0)
(10.1097 0.0523605 0)
(10.1165 0.0509265 0)
(10.1231 0.0492267 0)
(10.1294 0.0471773 0)
(10.1354 0.0446601 0)
(10.1411 0.0415101 0)
(10.1462 0.0376049 0)
(10.0004 0.00934713 0)
(10.0074 0.0285638 0)
(10.02 0.0388059 0)
(10.0322 0.0439772 0)
(10.0425 0.0481112 0)
(10.0525 0.0509283 0)
(10.0622 0.052182 0)
(10.0711 0.052421 0)
(10.0793 0.0521117 0)
(10.0868 0.0514303 0)
(10.094 0.0504463 0)
(10.1008 0.0492055 0)
(10.1073 0.0477238 0)
(10.1136 0.0459757 0)
(10.1196 0.043899 0)
(10.1253 0.0414074 0)
(10.1306 0.0384138 0)
(10.1354 0.0348787 0)
(10.0004 0.00828761 0)
(10.0063 0.0246729 0)
(10.0171 0.0348194 0)
(10.0283 0.04048 0)
(10.0381 0.0445837 0)
(10.0475 0.0473105 0)
(10.0566 0.048599 0)
(10.0652 0.0489204 0)
(10.073 0.0486896 0)
(10.0804 0.0480741 0)
(10.0873 0.0471424 0)
(10.0939 0.0459372 0)
(10.1002 0.0444772 0)
(10.1062 0.0427455 0)
(10.1119 0.0407019 0)
(10.1173 0.038293 0)
(10.1223 0.0354831 0)
(10.1267 0.0322881 0)
(10.0004 0.00729525 0)
(10.0053 0.0215629 0)
(10.0146 0.0312349 0)
(10.0248 0.0369133 0)
(10.034 0.0408256 0)
(10.0429 0.0434634 0)
(10.0516 0.0448349 0)
(10.0598 0.0452816 0)
(10.0675 0.0451527 0)
(10.0746 0.0446143 0)
(10.0814 0.04374 0)
(10.0878 0.0425748 0)
(10.0939 0.0411435 0)
(10.0997 0.0394419 0)
(10.1052 0.0374507 0)
(10.1103 0.0351455 0)
(10.115 0.0325235 0)
(10.1192 0.0296304 0)
(10.0004 0.00642314 0)
(10.0046 0.0188208 0)
(10.0125 0.0277386 0)
(10.0216 0.0332688 0)
(10.0303 0.0370216 0)
(10.0387 0.0395802 0)
(10.0469 0.0410027 0)
(10.0548 0.0415385 0)
(10.0622 0.0414846 0)
(10.0692 0.0410067 0)
(10.0758 0.040183 0)
(10.082 0.0390611 0)
(10.088 0.0376709 0)
(10.0936 0.0360202 0)
(10.0989 0.0341067 0)
(10.1038 0.0319283 0)
(10.1083 0.0295014 0)
(10.1123 0.0268846 0)
(10.0004 0.00561587 0)
(10.0039 0.0163273 0)
(10.0107 0.0243932 0)
(10.0189 0.0296729 0)
(10.0269 0.033249 0)
(10.0348 0.0356874 0)
(10.0426 0.0370991 0)
(10.0501 0.0376788 0)
(10.0573 0.0376743 0)
(10.064 0.0372436 0)
(10.0704 0.036467 0)
(10.0765 0.0353936 0)
(10.0823 0.0340573 0)
(10.0877 0.0324758 0)
(10.0928 0.03066 0)
(10.0975 0.0286231 0)
(10.1018 0.0263917 0)
(10.1057 0.0240287 0)
(10.0003 0.00490155 0)
(10.0034 0.0142141 0)
(10.0093 0.0214751 0)
(10.0167 0.0264342 0)
(10.0242 0.0298072 0)
(10.0316 0.0320998 0)
(10.039 0.0334591 0)
(10.0461 0.0340465 0)
(10.053 0.0340679 0)
(10.0595 0.0336694 0)
(10.0657 0.0329314 0)
(10.0716 0.0319041 0)
(10.0772 0.0306245 0)
(10.0825 0.0291175 0)
(10.0874 0.0274029 0)
(10.0919 0.0255029 0)
(10.0961 0.0234481 0)
(10.0999 0.0213012 0)
(10.0003 0.00423689 0)
(10.003 0.0122843 0)
(10.0082 0.0187187 0)
(10.0148 0.0232738 0)
(10.0217 0.0264048 0)
(10.0287 0.0285281 0)
(10.0357 0.029805 0)
(10.0425 0.0303743 0)
(10.0491 0.0304056 0)
(10.0554 0.03003 0)
(10.0614 0.0293264 0)
(10.0671 0.0283459 0)
(10.0724 0.0271275 0)
(10.0775 0.0257011 0)
(10.0823 0.0240925 0)
(10.0866 0.0223293 0)
(10.0907 0.0204429 0)
(10.0943 0.018495 0)
(10.0003 0.00354487 0)
(10.0026 0.0102681 0)
(10.0071 0.0157578 0)
(10.0129 0.0197722 0)
(10.0193 0.0225683 0)
(10.0258 0.0244585 0)
(10.0323 0.0256003 0)
(10.0387 0.0261135 0)
(10.045 0.026132 0)
(10.051 0.0257683 0)
(10.0567 0.0250971 0)
(10.0622 0.024169 0)
(10.0674 0.0230239 0)
(10.0723 0.0216947 0)
(10.0768 0.0202106 0)
(10.081 0.0186021 0)
(10.0849 0.0168995 0)
(10.0884 0.0151604 0)
(10.0002 0.00282201 0)
(10.0022 0.0081656 0)
(10.0061 0.0126037 0)
(10.0112 0.0159373 0)
(10.0169 0.0182869 0)
(10.0229 0.0198643 0)
(10.029 0.0208062 0)
(10.035 0.0212126 0)
(10.0409 0.0211858 0)
(10.0466 0.0208169 0)
(10.0521 0.0201724 0)
(10.0573 0.0193004 0)
(10.0622 0.0182395 0)
(10.0669 0.0170229 0)
(10.0712 0.0156805 0)
(10.0752 0.0142426 0)
(10.0789 0.012736 0)
(10.0824 0.0112125 0)
(10.0002 0.00206868 0)
(10.0019 0.00598171 0)
(10.0052 0.00926789 0)
(10.0097 0.0117782 0)
(10.0148 0.0135533 0)
(10.0203 0.014721 0)
(10.0258 0.0153839 0)
(10.0314 0.0156198 0)
(10.037 0.0155032 0)
(10.0424 0.0151025 0)
(10.0475 0.0144725 0)
(10.0525 0.013655 0)
(10.0572 0.0126846 0)
(10.0616 0.0115916 0)
(10.0657 0.0104035 0)
(10.0696 0.00914702 0)
(10.0732 0.00784441 0)
(10.0765 0.0065401 0)
(10.0002 0.00128324 0)
(10.0016 0.00370487 0)
(10.0045 0.00573699 0)
(10.0084 0.007282 0)
(10.013 0.00834425 0)
(10.018 0.0089897 0)
(10.0231 0.009282 0)
(10.0283 0.00927313 0)
(10.0335 0.00901167 0)
(10.0386 0.00854346 0)
(10.0435 0.00790758 0)
(10.0482 0.00713592 0)
(10.0526 0.00625541 0)
(10.0568 0.00529009 0)
(10.0608 0.00426184 0)
(10.0645 0.00319153 0)
(10.0679 0.0020953 0)
(10.0712 0.00100929 0)
(10.0002 0.00045022 0)
(10.0014 0.00128423 0)
(10.004 0.00193914 0)
(10.0075 0.00236868 0)
(10.0117 0.00256874 0)
(10.0163 0.00256361 0)
(10.0211 0.0023792 0)
(10.026 0.00203916 0)
(10.0309 0.00156698 0)
(10.0357 0.000985397 0)
(10.0404 0.000314597 0)
(10.0448 -0.000427951 0)
(10.0491 -0.0012266 0)
(10.0531 -0.00206682 0)
(10.0569 -0.00293509 0)
(10.0605 -0.00381826 0)
(10.0639 -0.00470705 0)
(10.067 -0.00557419 0)
(10.0001 -0.000473494 0)
(10.0014 -0.00140355 0)
(10.0038 -0.00230305 0)
(10.0072 -0.00316212 0)
(10.0112 -0.00397861 0)
(10.0156 -0.00476282 0)
(10.0202 -0.00552882 0)
(10.025 -0.00628412 0)
(10.0297 -0.00703132 0)
(10.0343 -0.00777236 0)
(10.0389 -0.0085091 0)
(10.0432 -0.00924218 0)
(10.0473 -0.00997085 0)
(10.0513 -0.0106932 0)
(10.055 -0.0114068 0)
(10.0585 -0.0121079 0)
(10.0618 -0.0127952 0)
(10.0649 -0.0134515 0)
(10.0002 -0.00134816 0)
(10.0014 -0.00395811 0)
(10.004 -0.00634829 0)
(10.0075 -0.00843551 0)
(10.0117 -0.0102074 0)
(10.0163 -0.0117182 0)
(10.021 -0.013024 0)
(10.0259 -0.014159 0)
(10.0307 -0.0151516 0)
(10.0354 -0.0160307 0)
(10.0399 -0.0168215 0)
(10.0443 -0.0175423 0)
(10.0484 -0.0182059 0)
(10.0524 -0.0188223 0)
(10.0561 -0.0193989 0)
(10.0596 -0.0199406 0)
(10.0629 -0.0204523 0)
(10.066 -0.0209249 0)
(10.0002 -0.00208967 0)
(10.0016 -0.00615874 0)
(10.0044 -0.00984862 0)
(10.0083 -0.0129421 0)
(10.0129 -0.0154443 0)
(10.0177 -0.017505 0)
(10.0227 -0.0192219 0)
(10.0278 -0.0206346 0)
(10.0328 -0.0217883 0)
(10.0376 -0.0227404 0)
(10.0423 -0.02354 0)
(10.0467 -0.0242217 0)
(10.051 -0.0248108 0)
(10.055 -0.0253273 0)
(10.0588 -0.0257864 0)
(10.0623 -0.0261991 0)
(10.0656 -0.0265746 0)
(10.0688 -0.0269098 0)
(10.0002 -0.00277569 0)
(10.0017 -0.00829838 0)
(10.0049 -0.0133157 0)
(10.0094 -0.0173242 0)
(10.0145 -0.0204002 0)
(10.0198 -0.0228745 0)
(10.0251 -0.0248996 0)
(10.0305 -0.0265153 0)
(10.0357 -0.0277824 0)
(10.0408 -0.0287789 0)
(10.0456 -0.0295671 0)
(10.0502 -0.030192 0)
(10.0546 -0.03069 0)
(10.0586 -0.0310918 0)
(10.0625 -0.0314207 0)
(10.0661 -0.0316937 0)
(10.0695 -0.0319235 0)
(10.0726 -0.0321102 0)
(10.0001 -0.00338824 0)
(10.0017 -0.010413 0)
(10.0055 -0.016763 0)
(10.0109 -0.0215993 0)
(10.0166 -0.0252206 0)
(10.0223 -0.0280786 0)
(10.028 -0.0303003 0)
(10.0337 -0.0319697 0)
(10.0393 -0.0332307 0)
(10.0445 -0.0342012 0)
(10.0496 -0.0349466 0)
(10.0543 -0.0355113 0)
(10.0588 -0.0359356 0)
(10.063 -0.0362551 0)
(10.0669 -0.036496 0)
(10.0706 -0.0366772 0)
(10.074 -0.0368135 0)
(10.0772 -0.0369107 0)
(10.0001 -0.00388714 0)
(10.0017 -0.0128952 0)
(10.0061 -0.0202956 0)
(10.0124 -0.0253556 0)
(10.0188 -0.0294168 0)
(10.025 -0.0328811 0)
(10.0312 -0.0354815 0)
(10.0373 -0.0372483 0)
(10.0431 -0.0384471 0)
(10.0486 -0.039279 0)
(10.0538 -0.0398419 0)
(10.0587 -0.040201 0)
(10.0633 -0.040415 0)
(10.0676 -0.0405319 0)
(10.0716 -0.0405843 0)
(10.0754 -0.0405938 0)
(10.0789 -0.0405738 0)
(10.0821 -0.0405215 0)
(9.99983 -0.00358672 0)
(10.0013 -0.0164911 0)
(10.007 -0.0254713 0)
(10.0141 -0.0296576 0)
(10.0207 -0.0329909 0)
(10.0273 -0.0364502 0)
(10.0342 -0.0393838 0)
(10.0409 -0.0415604 0)
(10.0473 -0.04314 0)
(10.0532 -0.0442699 0)
(10.0588 -0.0450308 0)
(10.064 -0.0454973 0)
(10.0689 -0.0457462 0)
(10.0734 -0.0458424 0)
(10.0776 -0.0458332 0)
(10.0815 -0.0457522 0)
(10.0852 -0.045625 0)
(10.0886 -0.045462 0)
(9.99835 -7.73077e-05 0)
(9.99822 -0.017449 0)
(10.0068 -0.0314595 0)
(10.0162 -0.0375699 0)
(10.0234 -0.0402772 0)
(10.0303 -0.0418313 0)
(10.0379 -0.0427869 0)
(10.0455 -0.0434801 0)
(10.0527 -0.0440778 0)
(10.0594 -0.0445883 0)
(10.0657 -0.0449786 0)
(10.0716 -0.0452603 0)
(10.0771 -0.0454556 0)
(10.0821 -0.0455924 0)
(10.0868 -0.045685 0)
(10.0911 -0.0457498 0)
(10.0951 -0.0457918 0)
(10.0988 -0.0457794 0)
(9.99422 0.00249354 0)
(9.9901 -0.00742843 0)
(10.0032 -0.0229257 0)
(10.0185 -0.0397291 0)
(10.0302 -0.0531072 0)
(10.0404 -0.0608727 0)
(10.0501 -0.0644016 0)
(10.0593 -0.0656435 0)
(10.0678 -0.0657256 0)
(10.0756 -0.0650954 0)
(10.083 -0.0640352 0)
(10.0897 -0.0627348 0)
(10.0959 -0.0613571 0)
(10.1016 -0.0599825 0)
(10.1067 -0.058676 0)
(10.1114 -0.0574669 0)
(10.1157 -0.056381 0)
(10.1196 -0.0553708 0)
(9.99443 -0.0305958 0)
(9.99463 -0.0135125 0)
(10.0087 0.0213847 0)
(10.0272 0.0319182 0)
(10.047 0.0240547 0)
(10.0668 0.0115315 0)
(10.085 -0.000172814 0)
(10.1007 -0.0103772 0)
(10.114 -0.0190072 0)
(10.1251 -0.0260715 0)
(10.1344 -0.0316645 0)
(10.1418 -0.036029 0)
(10.1476 -0.0393961 0)
(10.152 -0.0419832 0)
(10.155 -0.0439535 0)
(10.1569 -0.0454764 0)
(10.1579 -0.0466811 0)
(10.1579 -0.0477129 0)
(10.0367 -0.208939 0)
(10.107 -0.36601 0)
(10.1425 -0.352639 0)
(10.1567 -0.297972 0)
(10.1697 -0.247577 0)
(10.182 -0.206751 0)
(10.1884 -0.174318 0)
(10.1867 -0.148955 0)
(10.1774 -0.129238 0)
(10.1619 -0.113715 0)
(10.1414 -0.101318 0)
(10.1169 -0.0912885 0)
(10.0894 -0.083095 0)
(10.0598 -0.0763319 0)
(10.0288 -0.0707184 0)
(9.99693 -0.0660747 0)
(9.96473 -0.0622507 0)
(9.93285 -0.0595479 0)
(9.92843 0.765812 0)
(9.84047 0.742588 0)
(9.705 0.524938 0)
(9.52633 0.349226 0)
(9.3318 0.228041 0)
(9.1406 0.147288 0)
(8.9588 0.0938348 0)
(8.78891 0.0582018 0)
(8.63232 0.0343039 0)
(8.48967 0.0182596 0)
(8.36032 0.0075723 0)
(8.24346 0.000575454 0)
(8.13792 -0.00398797 0)
(8.04264 -0.00685452 0)
(7.9565 -0.00854318 0)
(7.87853 -0.0094901 0)
(7.80737 -0.00997947 0)
(7.74265 -0.0105978 0)
(0.0023186 -0.00411112 -8.48519e-19)
(0.0104879 -0.0113798 7.42204e-19)
(0.0217254 -0.0160402 0)
(0.0340377 -0.017474 0)
(0.0452658 -0.0163572 0)
(0.0544522 -0.0137424 -4.17296e-19)
(0.0612558 -0.0104762 0)
(0.0656258 -0.00708168 0)
(0.0677103 -0.00385083 0)
(0.0676024 -0.000984988 0)
(0.0656267 0.00135024 3.74968e-19)
(0.0622125 0.00310823 0)
(0.0576552 0.00438098 0)
(0.0521753 0.00532883 0)
(0.045908 0.0061178 0)
(0.0388977 0.00688806 4.12294e-19)
(0.031119 0.00774373 0)
(0.0225041 0.00874709 0)
(0.0129561 0.00989289 0)
(0.00234902 0.0110661 0)
(-0.00943748 0.0121013 0)
(-0.0225744 0.013045 0)
(-0.0372313 0.0140544 0)
(-0.0535501 0.0152094 3.41075e-19)
(-0.0716756 0.0165427 -3.09542e-19)
(-0.0917406 0.0180672 2.81041e-19)
(-0.113855 0.0197803 2.55349e-19)
(-0.1381 0.0216597 0)
(-0.164519 0.0236566 0)
(-0.193101 0.0256947 -1.93145e-19)
(-0.223774 0.0276927 -1.76785e-19)
(-0.256434 0.0295993 0)
(-0.290937 0.0313725 0)
(-0.327119 0.0329761 -1.38241e-19)
(-0.364794 0.0343806 0)
(-0.403766 0.0355664 0)
(-0.443831 0.0365249 1.11686e-19)
(-0.484786 0.0372557 0)
(-0.526439 0.0377669 9.8658e-20)
(-0.568611 0.0380725 1.86407e-19)
(-0.611139 0.0381904 0)
(-0.653878 0.0381406 0)
(-0.696698 0.037945 0)
(-0.739495 0.0376273 0)
(-0.78219 0.0372155 0)
(-0.824723 0.0367446 1.40928e-19)
(-0.867036 0.0362552 1.35664e-19)
(-0.909072 0.0357843 1.30832e-19)
(-0.9509 0.0353438 0)
(-0.99253 0.0349219 -1.223e-19)
(-1.03397 0.0345156 0)
(-1.07522 0.0341227 1.15012e-19)
(-1.11631 0.033742 1.1175e-19)
(-1.15722 0.0333722 0)
(-1.19797 0.0330118 0)
(-1.23856 0.0326592 0)
(-1.279 0.0323127 1.00679e-19)
(-1.31928 0.0319702 0)
(-1.35939 0.0316296 0)
(-1.39934 0.0312885 0)
(-1.43911 0.0309449 0)
(-1.47869 0.0305962 0)
(-1.51808 0.0302404 0)
(-1.55724 0.0298753 0)
(-1.59617 0.029499 0)
(-1.63484 0.0291094 -8.32928e-20)
(-1.67323 0.0287049 0)
(-1.7113 0.0282839 0)
(-1.74904 0.0278451 7.89385e-20)
(-1.7864 0.0273872 7.75972e-20)
(-1.82336 0.026909 0)
(-1.85988 0.0264097 -7.50549e-20)
(-1.89593 0.0258886 7.38466e-20)
(-1.93146 0.0253449 0)
(-1.96643 0.0247784 -7.15394e-20)
(-2.00081 0.0241887 0)
(-2.03456 0.0235758 0)
(-2.06763 0.0229395 6.8307e-20)
(-2.09998 0.0222802 0)
(-2.13156 0.0215978 -6.62733e-20)
(-2.16234 0.0208929 0)
(-2.19226 0.0201657 6.43139e-20)
(-2.22129 0.0194168 6.33565e-20)
(-2.24938 0.0186465 6.24111e-20)
(-2.27649 0.0178556 1.22951e-19)
(-2.30257 0.0170446 -1.21097e-19)
(-2.32757 0.0162142 0)
(-2.35147 0.0153645 0)
(-2.37421 0.0144959 0)
(-2.39575 0.0136078 -1.13765e-19)
(-2.41605 0.0126995 -1.11936e-19)
(-2.43507 0.0117694 1.10102e-19)
(-2.45276 0.010815 0)
(-2.46908 0.00983228 -1.06408e-19)
(-2.48398 0.00881512 -1.04542e-19)
(-2.4974 0.0077555 -1.02661e-19)
(-2.50929 0.00664325 0)
(-2.51956 0.00546808 0)
(-2.52816 0.00422799 0)
(-2.53499 0.00294815 -9.4946e-20)
(-2.53996 0.00169606 0)
(-2.54293 0.00055872 0)
(-2.544 -0.000423299 8.88725e-20)
(-2.54357 -0.00131607 0)
(-2.54156 -0.00218915 0)
(-2.53802 -0.00305274 8.23579e-20)
(-2.53293 -0.00391195 0)
(-2.52628 -0.0047674 0)
(-2.51806 -0.00561868 -7.53621e-20)
(-2.50826 -0.00646547 -7.29104e-20)
(-2.49689 -0.00730676 0)
(-2.48392 -0.00814214 6.78118e-20)
(-2.46936 -0.0089705 0)
(-2.45321 -0.00979148 -6.24343e-20)
(-2.43546 -0.010604 0)
(-2.41613 -0.0114077 -5.67553e-20)
(-2.39521 -0.0122016 -5.37952e-20)
(-2.37271 -0.0129854 0)
(-2.34863 -0.0137581 0)
(-2.323 -0.0145196 0)
(-2.29582 -0.0152691 0)
(-2.2671 -0.0160062 0)
(-2.23687 -0.0167297 0)
(-2.20513 -0.0174394 0)
(-2.17191 -0.0181341 -2.67838e-20)
(-2.13723 -0.0188141 2.2934e-20)
(-2.10112 -0.0194785 0)
(-2.0636 -0.0201277 0)
(-2.0247 -0.0207612 0)
(-1.98444 -0.02138 0)
(-1.94287 -0.021984 3.56453e-21)
(-1.9 -0.0225733 0)
(-1.85588 -0.0231456 1.5353e-20)
(-1.81052 -0.0237018 -2.52954e-20)
(-1.76398 -0.0242408 0)
(-1.7163 -0.0247636 0)
(-1.66751 -0.0252731 0)
(-1.61765 -0.0257663 6.86864e-20)
(-1.56677 -0.0262419 8.05376e-20)
(-1.51491 -0.0267016 0)
(-1.46212 -0.0271448 1.05607e-19)
(-1.40844 -0.027572 1.1888e-19)
(-1.35393 -0.0279834 -1.32684e-19)
(-1.29862 -0.0283794 0)
(-1.24256 -0.0287603 0)
(-1.18582 -0.0291263 -1.77636e-19)
(-1.12842 -0.0294781 0)
(-1.07042 -0.029816 0)
(-1.01188 -0.0301407 0)
(-0.95283 -0.0304527 0)
(-0.893326 -0.0307529 2.66993e-19)
(-0.833414 -0.0310419 2.87531e-19)
(-0.77314 -0.0313207 0)
(-0.71255 -0.0315903 3.31858e-19)
(-0.651686 -0.0318517 0)
(-0.590592 -0.0321061 0)
(-0.529308 -0.0323549 4.0794e-19)
(-0.467875 -0.0325994 0)
(-0.406329 -0.0328407 4.665e-19)
(-0.344708 -0.0330792 0)
(-0.283049 -0.0333161 0)
(-0.221388 -0.0335541 5.69483e-19)
(-0.159758 -0.0338135 0)
(-0.0981901 -0.0340938 6.51029e-19)
(-0.0367609 -0.034315 0)
(0.02452 -0.0339832 0)
(0.085658 -0.0330812 0)
(0.146604 -0.0321333 -6.80071e-19)
(0.207313 -0.0312366 0)
(0.267764 -0.0303873 6.50306e-19)
(0.327952 -0.0295733 0)
(0.387856 -0.0287795 0)
(0.447419 -0.027985 0)
(0.506519 -0.0271579 0)
(0.564977 -0.0262408 0)
(0.622216 -0.0251242 0)
(0.677963 -0.0235503 0)
(0.727661 -0.0208822 -1.13781e-18)
(0.776772 -0.0158154 0)
(0.776265 0.000848078 0)
(0.00527745 -0.02239 2.07134e-18)
(0.0164915 -0.0360014 -1.27666e-18)
(0.0251764 -0.037075 0)
(0.0312009 -0.0331903 4.04243e-19)
(0.034967 -0.0271111 0)
(0.0366715 -0.020113 1.55263e-19)
(0.0365465 -0.0129606 -2.93299e-19)
(0.0347761 -0.00611796 -2.84059e-19)
(0.0314831 0.000149993 0)
(0.0268051 0.0056751 -2.7508e-19)
(0.0207534 0.010369 -1.37035e-19)
(0.0132923 0.0142724 0)
(0.0044133 0.0175455 0)
(-0.00589753 0.0204003 0)
(-0.0176613 0.0230584 0)
(-0.0309111 0.0257124 -1.25347e-19)
(-0.0456997 0.0285036 0)
(-0.0621059 0.0315197 2.31915e-19)
(-0.0802347 0.0348012 0)
(-0.100186 0.0383612 0)
(-0.122012 0.042194 -2.05704e-19)
(-0.145744 0.0462935 0)
(-0.171437 0.0506604 1.89387e-19)
(-0.199128 0.0552705 -9.08057e-20)
(-0.228804 0.0600636 8.68484e-20)
(-0.260403 0.0649485 -8.29517e-20)
(-0.293817 0.0698144 -7.91329e-20)
(-0.328896 0.0745465 0)
(-0.365449 0.0790453 0)
(-0.403269 0.0832347 6.83e-20)
(-0.442161 0.0870389 -6.48105e-20)
(-0.481931 0.090388 0)
(-0.52238 0.0932416 0)
(-0.563316 0.0955836 5.63504e-20)
(-0.604564 0.0974139 0)
(-0.645963 0.0987349 0)
(-0.687372 0.0995717 -4.94579e-20)
(-0.728676 0.099968 0)
(-0.769786 0.0999736 4.55815e-20)
(-0.810632 0.0996414 -8.81254e-20)
(-0.851167 0.0990247 0)
(-0.891361 0.0981754 0)
(-0.931198 0.0971419 -1.59104e-19)
(-0.970676 0.0959684 -1.54309e-19)
(-1.00981 0.0946957 -1.49869e-19)
(-1.04861 0.0933644 7.27449e-20)
(-1.0871 0.0920176 -7.10869e-20)
(-1.1253 0.0906951 -2.07629e-19)
(-1.1632 0.0894156 1.34974e-19)
(-1.20082 0.0881773 6.60451e-20)
(-1.23815 0.0869762 0)
(-1.27522 0.085809 -6.31593e-20)
(-1.31202 0.0846717 6.15551e-20)
(-1.34856 0.0835602 0)
(-1.38485 0.0824699 0)
(-1.42089 0.0813961 0)
(-1.45667 0.0803338 -5.71603e-20)
(-1.4922 0.0792779 0)
(-1.52747 0.0782234 1.09982e-19)
(-1.56246 0.0771651 0)
(-1.59717 0.076098 1.06253e-19)
(-1.63159 0.0750172 0)
(-1.66569 0.0739183 -1.02803e-19)
(-1.69946 0.0727967 0)
(-1.73289 0.0716487 9.95885e-20)
(-1.76594 0.0704705 -4.88952e-20)
(-1.7986 0.069259 0)
(-1.83083 0.0680111 -9.51345e-20)
(-1.86262 0.0667246 -4.6995e-20)
(-1.89394 0.0653972 -4.63098e-20)
(-1.92475 0.0640271 0)
(-1.95502 0.062613 -4.47433e-20)
(-1.98473 0.0611537 -4.43453e-20)
(-2.01384 0.0596485 0)
(-2.04232 0.058097 4.30975e-20)
(-2.07013 0.056499 -8.47575e-20)
(-2.09725 0.054855 0)
(-2.12363 0.0531652 -4.12935e-20)
(-2.14925 0.0514304 0)
(-2.17406 0.0496515 1.20178e-19)
(-2.19803 0.0478297 0)
(-2.22113 0.0459661 -1.16727e-19)
(-2.24332 0.0440624 -3.83923e-20)
(-2.26457 0.0421198 3.76631e-20)
(-2.28485 0.0401402 7.41977e-20)
(-2.30411 0.0381253 -7.3068e-20)
(-2.32232 0.0360772 0)
(-2.33946 0.0339975 0)
(-2.35548 0.0318879 0)
(-2.37036 0.0297497 2.05887e-19)
(-2.38406 0.0275841 6.75086e-20)
(-2.39656 0.025392 -6.63138e-20)
(-2.40782 0.023174 0)
(-2.41782 0.0209304 -6.37896e-20)
(-2.42653 0.0186607 6.26471e-20)
(-2.43393 0.016364 6.13934e-20)
(-2.44002 0.0140383 0)
(-2.44478 0.0116788 0)
(-2.44824 0.00927811 0)
(-2.45043 0.00684017 5.61987e-20)
(-2.45144 0.0044038 0)
(-2.45137 0.00204778 -1.07023e-19)
(-2.4502 -0.000169208 -1.56247e-19)
(-2.44759 -0.00228976 1.01345e-19)
(-2.44351 -0.00437345 0)
(-2.43792 -0.00643128 4.78411e-20)
(-2.43081 -0.00846889 0)
(-2.42217 -0.0104865 8.94068e-20)
(-2.41198 -0.0124826 -4.3289e-20)
(-2.40023 -0.0144557 -4.17173e-20)
(-2.38692 -0.0164034 0)
(-2.37205 -0.0183238 -1.14725e-19)
(-2.3556 -0.0202147 7.32645e-20)
(-2.33758 -0.0220742 3.47181e-20)
(-2.31799 -0.0239 0)
(-2.29683 -0.0256907 3.11989e-20)
(-2.2741 -0.0274439 8.86899e-20)
(-2.24982 -0.0291581 0)
(-2.22398 -0.0308314 5.19446e-20)
(-2.1966 -0.0324628 4.81752e-20)
(-2.16769 -0.0340504 4.43429e-20)
(-2.13727 -0.0355931 0)
(-2.10535 -0.0370887 0)
(-2.07195 -0.0385356 0)
(-2.03708 -0.0399318 -1.4547e-20)
(-2.00078 -0.0412764 -1.17444e-20)
(-1.96305 -0.0425679 0)
(-1.92393 -0.0438059 -1.57337e-20)
(-1.88345 -0.0449896 -1.139e-20)
(-1.84163 -0.0461193 0)
(-1.79851 -0.0471947 -1.65772e-21)
(-1.75411 -0.0482165 4.05381e-21)
(-1.70848 -0.0491847 -7.52117e-21)
(-1.66163 -0.0501002 -1.03803e-20)
(-1.61361 -0.0509571 0)
(-1.56446 -0.0517508 0)
(-1.51421 -0.0524882 0)
(-1.46292 -0.053174 -3.1589e-20)
(-1.41062 -0.0538036 3.4588e-20)
(-1.35735 -0.0543749 8.12865e-20)
(-1.30316 -0.0548891 -4.67941e-20)
(-1.24809 -0.0553473 4.98929e-20)
(-1.19221 -0.0557504 5.72489e-20)
(-1.13554 -0.0560992 0)
(-1.07814 -0.0563948 0)
(-1.02005 -0.0566384 -7.12078e-20)
(-0.961334 -0.0568312 0)
(-0.90203 -0.0569747 0)
(-0.842187 -0.0570702 1.77999e-19)
(-0.781855 -0.0571197 0)
(-0.721081 -0.0571249 9.9298e-20)
(-0.659912 -0.0570879 -1.07409e-19)
(-0.598396 -0.0570106 0)
(-0.536577 -0.0568956 1.16909e-19)
(-0.474499 -0.056745 0)
(-0.412206 -0.0565615 0)
(-0.349738 -0.0563474 -1.37417e-19)
(-0.287135 -0.0561053 2.84836e-19)
(-0.224435 -0.0558373 -1.49826e-19)
(-0.161674 -0.0555448 0)
(-0.0988859 -0.055228 0)
(-0.0361089 -0.0548893 1.66505e-19)
(0.0266443 -0.0545291 0)
(0.0893487 -0.0541473 1.72854e-19)
(0.151998 -0.0537362 0)
(0.214549 -0.0531423 0)
(0.276886 -0.0523309 0)
(0.339004 -0.0514692 1.82633e-19)
(0.400931 -0.0506211 0)
(0.462657 -0.0497921 -1.8614e-19)
(0.524163 -0.0489703 0)
(0.585416 -0.048135 0)
(0.646352 -0.0472526 3.79428e-19)
(0.706853 -0.0462672 -3.82104e-19)
(0.766728 -0.045072 0)
(0.825506 -0.0434665 0)
(0.882819 -0.0409554 0)
(0.935883 -0.0366021 1.18161e-18)
(0.987782 -0.0274199 0)
(1.01702 -0.00507374 -8.20658e-19)
(0.00487928 -0.0438149 -3.46232e-22)
(0.0118161 -0.0536842 1.31189e-18)
(0.0148282 -0.046615 0)
(0.0152266 -0.0365275 -5.69435e-19)
(0.0136812 -0.0259587 0)
(0.0104898 -0.0155344 0)
(0.00589398 -0.00554901 3.18846e-23)
(2.33154e-05 0.0038091 1.81723e-19)
(-0.00707736 0.0124299 1.73092e-19)
(-0.0154239 0.0202814 1.66298e-19)
(-0.0250674 0.0273909 0)
(-0.0360832 0.0338388 0)
(-0.0485542 0.0397625 -1.51628e-19)
(-0.0625584 0.0453425 -2.94626e-19)
(-0.0781604 0.0507733 2.86064e-19)
(-0.095411 0.0562328 0)
(-0.114349 0.0618615 2.69095e-19)
(-0.135004 0.0677523 -1.30484e-19)
(-0.157398 0.07395 0)
(-0.181541 0.0804599 2.44594e-19)
(-0.20741 0.087268 1.18425e-19)
(-0.234942 0.0943273 -2.28644e-19)
(-0.264043 0.101552 -1.10424e-19)
(-0.294589 0.108834 0)
(-0.326423 0.116043 2.04662e-19)
(-0.359365 0.12304 1.96805e-19)
(-0.393226 0.129686 0)
(-0.427814 0.135849 1.81666e-19)
(-0.462948 0.141421 0)
(-0.498465 0.146321 1.67741e-19)
(-0.534211 0.150499 8.06985e-20)
(-0.57005 0.153926 0)
(-0.605873 0.156592 0)
(-0.641594 0.158511 0)
(-0.677138 0.159721 0)
(-0.712455 0.160281 0)
(-0.747527 0.160259 0)
(-0.78235 0.159727 1.24857e-19)
(-0.816924 0.158763 -1.81325e-19)
(-0.851258 0.157442 0)
(-0.885368 0.155838 0)
(-0.919269 0.154016 0)
(-0.952981 0.152038 8.2889e-23)
(-0.986523 0.149957 1.04616e-19)
(-1.01991 0.147819 2.03815e-19)
(-1.05317 0.145662 -1.98811e-19)
(-1.08629 0.14352 -9.69955e-20)
(-1.1193 0.141417 9.48875e-20)
(-1.15217 0.139363 -1.23011e-22)
(-1.18492 0.137363 9.06743e-20)
(-1.21754 0.135415 0)
(-1.25002 0.133515 8.69839e-20)
(-1.28238 0.131657 -1.43148e-22)
(-1.31459 0.129835 0)
(-1.34667 0.128042 0)
(-1.3786 0.126269 -8.05746e-20)
(-1.41037 0.12451 0)
(-1.44199 0.122756 0)
(-1.47343 0.121 7.62732e-20)
(-1.50469 0.119233 1.50304e-19)
(-1.53575 0.117448 -7.40771e-20)
(-1.56659 0.115638 0)
(-1.59721 0.113798 7.17263e-20)
(-1.62757 0.11192 0)
(-1.65765 0.109998 6.91955e-20)
(-1.68744 0.108029 6.84534e-20)
(-1.71692 0.106008 -1.34526e-19)
(-1.74605 0.10393 -6.61008e-20)
(-1.77481 0.101792 0)
(-1.80316 0.0995925 1.28619e-19)
(-1.8311 0.0973278 0)
(-1.85857 0.0949965 1.87466e-19)
(-1.88556 0.0925974 1.2306e-19)
(-1.91202 0.0901298 1.21267e-19)
(-1.93794 0.0875933 -1.195e-19)
(-1.96326 0.0849881 1.76763e-19)
(-1.98797 0.0823147 0)
(-2.01202 0.079574 0)
(-2.03539 0.0767675 -1.12621e-19)
(-2.05803 0.0738965 -1.66515e-19)
(-2.07991 0.070963 0)
(-2.101 0.0679692 5.3895e-20)
(-2.12126 0.0649174 0)
(-2.14065 0.0618102 -1.56462e-19)
(-2.15915 0.0586503 -1.70896e-22)
(-2.17671 0.0554407 1.58459e-22)
(-2.19331 0.0521844 9.9226e-20)
(-2.2089 0.0488845 0)
(-2.22346 0.0455439 -9.5844e-20)
(-2.23696 0.0421656 -1.04856e-22)
(-2.24936 0.0387523 0)
(-2.26064 0.035307 0)
(-2.27077 0.031833 0)
(-2.27972 0.0283336 8.72055e-20)
(-2.28748 0.0248128 0)
(-2.29402 0.021276 0)
(-2.29933 0.0177305 0)
(-2.30341 0.0141866 0)
(-2.30626 0.010659 0)
(-2.30788 0.0071686 7.61098e-20)
(-2.30825 0.00373569 0)
(-2.30733 0.00036065 7.20727e-20)
(-2.30506 -0.00298446 7.00313e-20)
(-2.30139 -0.00631313 -6.79642e-20)
(-2.29629 -0.00961708 0)
(-2.28972 -0.0128928 -6.37495e-20)
(-2.28169 -0.016138 0)
(-2.27216 -0.0193496 -5.94228e-20)
(-2.26113 -0.0225241 5.72164e-20)
(-2.2486 -0.0256582 1.65385e-19)
(-2.23454 -0.0287483 0)
(-2.21897 -0.0317909 1.51778e-19)
(-2.20187 -0.0347825 4.86439e-20)
(-2.18324 -0.0377197 0)
(-2.16308 -0.0405994 8.73398e-20)
(-2.1414 -0.0434184 8.25503e-20)
(-2.1182 -0.0461737 -1.16214e-19)
(-2.09348 -0.0488623 0)
(-2.06725 -0.0514817 -3.35455e-20)
(-2.03953 -0.0540294 -3.10202e-20)
(-2.01031 -0.056503 -8.62079e-20)
(-1.97963 -0.0589 0)
(-1.94748 -0.0612176 0)
(-1.91389 -0.0634531 0)
(-1.87888 -0.0656039 -1.8916e-20)
(-1.84246 -0.0676679 0)
(-1.80466 -0.0696433 0)
(-1.76551 -0.0715287 9.87559e-21)
(-1.72502 -0.0733227 7.12446e-21)
(-1.68324 -0.0750251 0)
(-1.64018 -0.076636 0)
(-1.59588 -0.0781561 -2.50851e-21)
(-1.55037 -0.0795855 0)
(-1.50369 -0.0809239 1.38719e-20)
(-1.45586 -0.082166 1.84368e-20)
(-1.40693 -0.0833075 0)
(-1.35694 -0.0843537 0)
(-1.30592 -0.0853083 -3.57731e-20)
(-1.25391 -0.0861686 -1.2453e-21)
(-1.20097 -0.0869322 -1.262e-21)
(-1.14713 -0.0876002 0)
(-1.09244 -0.0881741 -1.19824e-19)
(-1.03695 -0.0886552 0)
(-0.980693 -0.089045 0)
(-0.923728 -0.089345 0)
(-0.8661 -0.0895572 8.44203e-20)
(-0.807855 -0.0896835 0)
(-0.749041 -0.0897262 -1.90121e-19)
(-0.689707 -0.0896876 -1.02435e-19)
(-0.6299 -0.0895705 0)
(-0.569666 -0.0893777 -1.14468e-19)
(-0.509053 -0.0891125 0)
(-0.448107 -0.0887779 0)
(-0.386871 -0.0883778 -3.94713e-19)
(-0.325389 -0.0879154 2.74199e-19)
(-0.263703 -0.0873949 0)
(-0.201854 -0.0868197 2.98115e-19)
(-0.13988 -0.0861933 -1.56423e-19)
(-0.0778176 -0.085519 0)
(-0.0156997 -0.0848016 0)
(0.0464447 -0.0840456 0)
(0.108583 -0.0832542 -5.24496e-19)
(0.170682 -0.0824225 0)
(0.232711 -0.0815519 -1.82203e-19)
(0.294662 -0.0806492 0)
(0.356527 -0.0797092 0)
(0.418274 -0.078726 0)
(0.479885 -0.0777186 0)
(0.541355 -0.0767113 0)
(0.602658 -0.0757041 0)
(0.663764 -0.074682 -4.03127e-19)
(0.724637 -0.073617 0)
(0.785211 -0.0724612 -2.07751e-19)
(0.845373 -0.0711324 6.28179e-19)
(0.904951 -0.0694792 0)
(0.963558 -0.0672163 0)
(1.02092 -0.0637427 -4.32027e-19)
(1.0752 -0.0578838 -4.39139e-19)
(1.12937 -0.0469258 4.44466e-19)
(1.17116 -0.0238018 4.57759e-19)
(0.00222015 -0.0563148 -3.13792e-18)
(0.00322081 -0.0573747 -1.64442e-18)
(0.000903686 -0.0444276 -6.40563e-19)
(-0.0032104 -0.0304015 -2.28095e-19)
(-0.00871929 -0.0167867 0)
(-0.0154255 -0.0037927 3.20865e-19)
(-0.0232223 0.00852696 -1.45355e-19)
(-0.0320808 0.0201378 0)
(-0.0420272 0.0310291 -1.28217e-19)
(-0.0531192 0.0412238 0)
(-0.0654334 0.0507826 2.37806e-19)
(-0.0790556 0.0598043 0)
(-0.0940686 0.0684229 1.12206e-19)
(-0.110542 0.076794 2.18217e-19)
(-0.128523 0.0850738 -2.12112e-19)
(-0.148034 0.0933981 0)
(-0.16907 0.101865 -1.99952e-19)
(-0.191598 0.110527 0)
(-0.215563 0.119386 0)
(-0.240885 0.128402 -1.81866e-19)
(-0.267457 0.137492 0)
(-0.295146 0.146549 7.59481e-23)
(-0.323797 0.155447 0)
(-0.353244 0.164049 0)
(-0.383314 0.172213 -4.61429e-23)
(-0.413841 0.179809 -1.47023e-19)
(-0.444668 0.186723 -1.41609e-19)
(-0.47566 0.192866 -1.36437e-19)
(-0.506703 0.198176 0)
(-0.537706 0.202618 -2.53401e-19)
(-0.568594 0.206177 0)
(-0.599316 0.208866 -1.17857e-19)
(-0.629841 0.210719 0)
(-0.660156 0.211785 0)
(-0.690266 0.212131 1.06242e-19)
(-0.720194 0.211843 0)
(-0.749958 0.211008 -9.96348e-20)
(-0.779583 0.20971 2.29637e-23)
(-0.809094 0.208029 1.87596e-19)
(-0.838517 0.20604 -1.82314e-19)
(-0.867875 0.203814 0)
(-0.897188 0.201413 0)
(-0.926471 0.198891 -8.41132e-20)
(-0.955737 0.196295 0)
(-0.984996 0.193665 -8.00773e-20)
(-1.01425 0.191032 7.82205e-20)
(-1.04351 0.18842 7.64591e-20)
(-1.07275 0.185847 0)