/*--------------------------------*- C++ -*----------------------------------*\
| =========                 |                                                 |
| \\      /  F ield         | OpenFOAM: The Open Source CFD Toolbox           |
|  \\    /   O peration     | Version:  2.3.0                                 |
|   \\  /    A nd           | Web:      www.OpenFOAM.org                      |
|    \\/     M anipulation  |                                                 |
\*---------------------------------------------------------------------------*/
FoamFile
{
    version     2.0;
    format      ascii;
    class       volVectorField;
    location    "0";
    object      U;
}
// * * * * * * * * * * * * * * * * * * * * * * * * * * * * * * * * * * * * * //

dimensions      [0 1 -1 0 0 0 0];

internalField   nonuniform List<vector> 
12225
(
(9.83972 -1.23842 0)
(9.73872 -0.73149 0)
(9.53698 -0.467335 0)
(9.32318 -0.307408 0)
(9.12438 -0.20596 0)
(8.94079 -0.139599 0)
(8.77069 -0.0949549 0)
(8.61331 -0.0642657 0)
(8.46789 -0.0428298 0)
(8.3335 -0.0276708 0)
(8.2092 -0.0168472 0)
(8.09414 -0.00906472 0)
(7.98757 -0.00344312 0)
(7.88877 0.000631077 0)
(7.79704 0.00361718 0)
(7.71151 0.00604616 0)
(7.62631 0.00948128 0)
(7.56103 -0.0194497 0)
(10.0335 0.447389 0)
(10.0226 0.42693 0)
(9.98834 0.340233 0)
(9.94293 0.270976 0)
(9.89657 0.217799 0)
(9.84853 0.17721 0)
(9.79809 0.146654 0)
(9.74597 0.123665 0)
(9.69303 0.106217 0)
(9.63995 0.0928196 0)
(9.58723 0.0824027 0)
(9.53528 0.0741935 0)
(9.48444 0.0676344 0)
(9.43494 0.0623331 0)
(9.38695 0.0580596 0)
(9.34065 0.0549438 0)
(9.29755 0.0541766 0)
(9.26301 0.0680563 0)
(9.9929 0.0267775 0)
(10.0022 -0.00877242 0)
(10.0178 -0.027586 0)
(10.0247 -0.0224539 0)
(10.0278 -0.0110948 0)
(10.0281 0.000218686 0)
(10.0255 0.0102942 0)
(10.0204 0.0188251 0)
(10.0135 0.0257779 0)
(10.0054 0.0312965 0)
(9.99626 0.0355921 0)
(9.98642 0.0388753 0)
(9.97609 0.0413354 0)
(9.96547 0.0431457 0)
(9.95473 0.0444978 0)
(9.94426 0.045681 0)
(9.93518 0.046849 0)
(9.92775 0.0448811 0)
(9.99998 0.0196745 0)
(10.0123 0.0433504 0)
(10.0308 0.0556683 0)
(10.0411 0.06527 0)
(10.0483 0.0706335 0)
(10.0543 0.0723619 0)
(10.0591 0.0721336 0)
(10.0629 0.0709796 0)
(10.0658 0.0693907 0)
(10.0683 0.0676223 0)
(10.0703 0.0658149 0)
(10.0719 0.064039 0)
(10.0733 0.0623239 0)
(10.0745 0.0606829 0)
(10.0757 0.0591309 0)
(10.0771 0.0576701 0)
(10.0795 0.0560372 0)
(10.0828 0.0525938 0)
(10.0023 0.0186709 0)
(10.0144 0.0407949 0)
(10.0302 0.0467987 0)
(10.0404 0.0491728 0)
(10.0485 0.0505682 0)
(10.056 0.0510885 0)
(10.0629 0.0512493 0)
(10.069 0.0513475 0)
(10.0746 0.0514241 0)
(10.0798 0.0514523 0)
(10.0847 0.0514063 0)
(10.0893 0.0512657 0)
(10.0937 0.051013 0)
(10.0981 0.0506326 0)
(10.1023 0.050101 0)
(10.1068 0.0493384 0)
(10.1117 0.0480362 0)
(10.1167 0.0452248 0)
(10.0025 0.0189133 0)
(10.0131 0.0369793 0)
(10.0269 0.0431878 0)
(10.0373 0.0464936 0)
(10.0459 0.0491947 0)
(10.0539 0.0509846 0)
(10.0613 0.0520556 0)
(10.0681 0.0526812 0)
(10.0744 0.0529854 0)
(10.0804 0.0530253 0)
(10.086 0.0528416 0)
(10.0915 0.052463 0)
(10.0968 0.0519036 0)
(10.102 0.051161 0)
(10.1072 0.0502052 0)
(10.1124 0.0489411 0)
(10.1178 0.0471316 0)
(10.1232 0.0443252 0)
(10.0022 0.0166133 0)
(10.0111 0.0317062 0)
(10.0232 0.038671 0)
(10.0334 0.0426301 0)
(10.042 0.0455522 0)
(10.0502 0.0474281 0)
(10.0577 0.0484921 0)
(10.0647 0.0490521 0)
(10.0713 0.0492752 0)
(10.0775 0.0492406 0)
(10.0835 0.0489938 0)
(10.0893 0.0485598 0)
(10.0949 0.0479447 0)
(10.1004 0.0471346 0)
(10.1058 0.0460874 0)
(10.1112 0.0447121 0)
(10.1165 0.0428454 0)
(10.1217 0.0402822 0)
(10.0019 0.0146595 0)
(10.0095 0.0280495 0)
(10.0202 0.0353162 0)
(10.0299 0.0395437 0)
(10.0384 0.0425196 0)
(10.0464 0.0444676 0)
(10.054 0.0456229 0)
(10.061 0.0462611 0)
(10.0677 0.0465426 0)
(10.074 0.0465464 0)
(10.0801 0.0463171 0)
(10.086 0.0458785 0)
(10.0917 0.0452361 0)
(10.0973 0.0443759 0)
(10.1027 0.0432603 0)
(10.1081 0.0418195 0)
(10.1132 0.0399519 0)
(10.1182 0.0375828 0)
(10.0017 0.0130731 0)
(10.0082 0.0250859 0)
(10.0178 0.0322488 0)
(10.0268 0.0365722 0)
(10.0351 0.0395762 0)
(10.0429 0.0415751 0)
(10.0504 0.0427953 0)
(10.0574 0.0434827 0)
(10.0641 0.0437916 0)
(10.0705 0.0438039 0)
(10.0766 0.0435666 0)
(10.0825 0.0431057 0)
(10.0882 0.0424281 0)
(10.0938 0.0415234 0)
(10.0992 0.0403615 0)
(10.1044 0.0388928 0)
(10.1094 0.0370563 0)
(10.1142 0.0348445 0)
(10.0015 0.0115161 0)
(10.0071 0.0221279 0)
(10.0154 0.0289731 0)
(10.0237 0.0332928 0)
(10.0316 0.036288 0)
(10.0392 0.0383083 0)
(10.0464 0.0395703 0)
(10.0534 0.0402916 0)
(10.06 0.0406187 0)
(10.0663 0.0406348 0)
(10.0724 0.0403892 0)
(10.0783 0.0399093 0)
(10.084 0.0392051 0)
(10.0895 0.0382709 0)
(10.0948 0.0370875 0)
(10.0999 0.0356256 0)
(10.1047 0.033857 0)
(10.1093 0.0318133 0)
(10.0013 0.00996493 0)
(10.006 0.0191741 0)
(10.0131 0.0255387 0)
(10.0207 0.0297358 0)
(10.0281 0.0326533 0)
(10.0353 0.0346414 0)
(10.0423 0.0359049 0)
(10.049 0.0366327 0)
(10.0555 0.03696 0)
(10.0617 0.0369691 0)
(10.0677 0.0367096 0)
(10.0735 0.0362107 0)
(10.0791 0.0354859 0)
(10.0845 0.0345362 0)
(10.0897 0.0333539 0)
(10.0946 0.0319281 0)
(10.0992 0.0302549 0)
(10.1037 0.0283834 0)
(10.0011 0.00843207 0)
(10.005 0.0162623 0)
(10.0111 0.0219933 0)
(10.0179 0.0259322 0)
(10.0248 0.0286895 0)
(10.0315 0.030583 0)
(10.0382 0.0318002 0)
(10.0446 0.0325012 0)
(10.0509 0.0328066 0)
(10.0569 0.0327944 0)
(10.0627 0.0325141 0)
(10.0684 0.0319965 0)
(10.0738 0.0312589 0)
(10.079 0.0303096 0)
(10.084 0.0291515 0)
(10.0887 0.0277883 0)
(10.0931 0.0262317 0)
(10.0974 0.0245352 0)
(10.0009 0.00693289 0)
(10.0042 0.0134115 0)
(10.0094 0.0183719 0)
(10.0154 0.0219103 0)
(10.0216 0.0244134 0)
(10.0279 0.0261405 0)
(10.0342 0.0272547 0)
(10.0403 0.0278882 0)
(10.0463 0.0281441 0)
(10.0521 0.0280936 0)
(10.0577 0.0277843 0)
(10.0631 0.0272482 0)
(10.0683 0.0265062 0)
(10.0733 0.0255726 0)
(10.0781 0.024459 0)
(10.0826 0.0231786 0)
(10.0868 0.0217513 0)
(10.0909 0.0202277 0)
(10.0008 0.00547367 0)
(10.0035 0.0106229 0)
(10.0079 0.0146996 0)
(10.0132 0.0176984 0)
(10.0189 0.019842 0)
(10.0246 0.0213208 0)
(10.0305 0.0222666 0)
(10.0363 0.0227844 0)
(10.0419 0.0229583 0)
(10.0474 0.0228498 0)
(10.0528 0.0225029 0)
(10.058 0.0219489 0)
(10.0629 0.0212109 0)
(10.0677 0.0203073 0)
(10.0722 0.0192551 0)
(10.0765 0.0180721 0)
(10.0805 0.0167807 0)
(10.0844 0.0154255 0)
(10.0006 0.00404993 0)
(10.0029 0.00788124 0)
(10.0067 0.010983 0)
(10.0114 0.0133126 0)
(10.0165 0.0149852 0)
(10.0218 0.0161253 0)
(10.0272 0.0168297 0)
(10.0326 0.0171766 0)
(10.038 0.0172302 0)
(10.0432 0.0170402 0)
(10.0483 0.016644 0)
(10.0532 0.0160704 0)
(10.0579 0.0153421 0)
(10.0624 0.0144787 0)
(10.0667 0.0134986 0)
(10.0708 0.0124207 0)
(10.0746 0.011266 0)
(10.0783 0.010072 0)
(10.0006 0.0026441 0)
(10.0025 0.00515077 0)
(10.0058 0.00719772 0)
(10.0099 0.00873983 0)
(10.0145 0.00982839 0)
(10.0194 0.0105343 0)
(10.0245 0.010919 0)
(10.0295 0.0110346 0)
(10.0346 0.0109246 0)
(10.0395 0.0106249 0)
(10.0443 0.0101639 0)
(10.049 0.00956486 0)
(10.0535 0.00884733 0)
(10.0577 0.00802889 0)
(10.0618 0.00712621 0)
(10.0657 0.00615589 0)
(10.0693 0.00513567 0)
(10.0729 0.00409542 0)
(10.0005 0.00122382 0)
(10.0022 0.00237139 0)
(10.0052 0.00328276 0)
(10.0089 0.00392753 0)
(10.0131 0.00432278 0)
(10.0177 0.00449879 0)
(10.0224 0.00448455 0)
(10.0272 0.00430598 0)
(10.0319 0.00398607 0)
(10.0366 0.00354461 0)
(10.0412 0.00299835 0)
(10.0457 0.00236201 0)
(10.0499 0.00164884 0)
(10.054 0.000871335 0)
(10.0579 4.15785e-05 0)
(10.0616 -0.000828392 0)
(10.0651 -0.00172582 0)
(10.0685 -0.00262795 0)
(10.0005 -0.000175039 0)
(10.0021 -0.000378496 0)
(10.0049 -0.000624275 0)
(10.0084 -0.000919693 0)
(10.0125 -0.00126601 0)
(10.0168 -0.00166485 0)
(10.0214 -0.00211687 0)
(10.026 -0.00262085 0)
(10.0306 -0.0031743 0)
(10.0351 -0.00377404 0)
(10.0395 -0.00441617 0)
(10.0438 -0.00509638 0)
(10.0479 -0.00580972 0)
(10.0519 -0.00655066 0)
(10.0556 -0.00731318 0)
(10.0592 -0.0080908 0)
(10.0626 -0.00887609 0)
(10.0659 -0.00965308 0)
(10.0005 -0.00146833 0)
(10.0021 -0.00292969 0)
(10.0049 -0.0042602 0)
(10.0085 -0.00543574 0)
(10.0125 -0.00647242 0)
(10.0169 -0.00740394 0)
(10.0214 -0.00825981 0)
(10.026 -0.00906194 0)
(10.0305 -0.00982741 0)
(10.035 -0.0105694 0)
(10.0393 -0.0112973 0)
(10.0436 -0.0120172 0)
(10.0476 -0.0127326 0)
(10.0515 -0.0134452 0)
(10.0552 -0.0141547 0)
(10.0587 -0.0148602 0)
(10.0621 -0.015559 0)
(10.0653 -0.0162406 0)
(10.0005 -0.00265622 0)
(10.0022 -0.00528722 0)
(10.0052 -0.00761667 0)
(10.009 -0.00957496 0)
(10.0132 -0.011206 0)
(10.0177 -0.0125866 0)
(10.0223 -0.0137759 0)
(10.0269 -0.0148176 0)
(10.0315 -0.0157475 0)
(10.036 -0.0165941 0)
(10.0404 -0.0173787 0)
(10.0446 -0.0181167 0)
(10.0486 -0.018819 0)
(10.0525 -0.0194935 0)
(10.0562 -0.0201455 0)
(10.0597 -0.0207783 0)
(10.063 -0.0213929 0)
(10.0662 -0.0219832 0)
(10.0005 -0.00378258 0)
(10.0024 -0.00756514 0)
(10.0057 -0.0108506 0)
(10.0098 -0.0135025 0)
(10.0143 -0.0156341 0)
(10.019 -0.0173858 0)
(10.0238 -0.0188447 0)
(10.0286 -0.0200744 0)
(10.0333 -0.0211296 0)
(10.0379 -0.0220539 0)
(10.0423 -0.0228788 0)
(10.0465 -0.0236274 0)
(10.0506 -0.0243169 0)
(10.0545 -0.0249601 0)
(10.0582 -0.0255669 0)
(10.0617 -0.0261447 0)
(10.065 -0.026699 0)
(10.0682 -0.0272286 0)
(10.0005 -0.00485011 0)
(10.0026 -0.00983973 0)
(10.0063 -0.0140641 0)
(10.0109 -0.0173011 0)
(10.0158 -0.0198215 0)
(10.0208 -0.0218513 0)
(10.0259 -0.0234979 0)
(10.0308 -0.0248431 0)
(10.0357 -0.0259613 0)
(10.0403 -0.026909 0)
(10.0448 -0.0277264 0)
(10.0491 -0.0284432 0)
(10.0532 -0.0290819 0)
(10.0571 -0.0296599 0)
(10.0608 -0.0301912 0)
(10.0643 -0.0306868 0)
(10.0675 -0.0311548 0)
(10.0707 -0.0315965 0)
(10.0005 -0.00582557 0)
(10.0027 -0.0121877 0)
(10.0071 -0.0173572 0)
(10.0124 -0.0210808 0)
(10.0177 -0.0239235 0)
(10.023 -0.0261865 0)
(10.0283 -0.0279845 0)
(10.0334 -0.0294265 0)
(10.0384 -0.030609 0)
(10.0431 -0.0315971 0)
(10.0477 -0.0324337 0)
(10.052 -0.0331504 0)
(10.0561 -0.0337716 0)
(10.06 -0.0343169 0)
(10.0637 -0.0348025 0)
(10.0672 -0.0352437 0)
(10.0704 -0.0356551 0)
(10.0736 -0.03605 0)
(10.0002 -0.00663377 0)
(10.0027 -0.0146578 0)
(10.0079 -0.0205667 0)
(10.0139 -0.0245007 0)
(10.0196 -0.027519 0)
(10.0252 -0.0298831 0)
(10.0307 -0.0316743 0)
(10.0359 -0.0330467 0)
(10.041 -0.0341336 0)
(10.0458 -0.035016 0)
(10.0503 -0.0357446 0)
(10.0546 -0.0363554 0)
(10.0587 -0.0368748 0)
(10.0626 -0.0373221 0)
(10.0662 -0.0377132 0)
(10.0696 -0.0380626 0)
(10.0728 -0.0383848 0)
(10.0758 -0.038691 0)
(9.99982 -0.00722834 0)
(10.0024 -0.0181401 0)
(10.0087 -0.0246965 0)
(10.0154 -0.0286205 0)
(10.0214 -0.0318973 0)
(10.0272 -0.0346041 0)
(10.0328 -0.0366954 0)
(10.0381 -0.0383116 0)
(10.0431 -0.0395782 0)
(10.0479 -0.0405709 0)
(10.0524 -0.0413444 0)
(10.0566 -0.0419437 0)
(10.0606 -0.0424043 0)
(10.0643 -0.0427537 0)
(10.0678 -0.0430142 0)
(10.0711 -0.0432077 0)
(10.0741 -0.0433627 0)
(10.0771 -0.0435236 0)
(9.99841 -0.00501952 0)
(10.0007 -0.0202894 0)
(10.0088 -0.0271052 0)
(10.016 -0.0298116 0)
(10.0219 -0.0317568 0)
(10.0276 -0.0332578 0)
(10.0332 -0.0344537 0)
(10.0385 -0.0355262 0)
(10.0435 -0.0365355 0)
(10.0481 -0.0374775 0)
(10.0525 -0.0383425 0)
(10.0565 -0.0391258 0)
(10.0603 -0.0398248 0)
(10.0639 -0.0404377 0)
(10.0672 -0.0409636 0)
(10.0702 -0.0414044 0)
(10.0729 -0.041771 0)
(10.0753 -0.0420899 0)
(9.99479 -0.0031872 0)
(9.99583 -0.0256795 0)
(10.0072 -0.0394663 0)
(10.0157 -0.048732 0)
(10.0218 -0.054639 0)
(10.0272 -0.0576146 0)
(10.0323 -0.0587606 0)
(10.0368 -0.0589291 0)
(10.0409 -0.0585653 0)
(10.0446 -0.0579077 0)
(10.0481 -0.0571018 0)
(10.0512 -0.0562369 0)
(10.0541 -0.055363 0)
(10.0567 -0.0545036 0)
(10.059 -0.0536638 0)
(10.0611 -0.0528352 0)
(10.0629 -0.0520117 0)
(10.0645 -0.0512022 0)
(9.98519 0.0057668 0)
(9.98187 0.0248666 0)
(9.99411 0.0365106 0)
(10.0037 0.0321385 0)
(10.0109 0.0223054 0)
(10.0167 0.0122845 0)
(10.0211 0.003127 0)
(10.024 -0.00497231 0)
(10.0259 -0.0119441 0)
(10.0269 -0.0178302 0)
(10.0272 -0.0227435 0)
(10.0269 -0.0268157 0)
(10.0261 -0.0301703 0)
(10.0248 -0.0329132 0)
(10.0232 -0.035127 0)
(10.0213 -0.0368618 0)
(10.0191 -0.0381333 0)
(10.0161 -0.0388367 0)
(10.0137 -0.317342 0)
(10.0102 -0.326326 0)
(9.99895 -0.271524 0)
(9.98283 -0.224891 0)
(9.96835 -0.188168 0)
(9.95437 -0.158842 0)
(9.93927 -0.135772 0)
(9.92274 -0.117761 0)
(9.90501 -0.10364 0)
(9.88628 -0.0924766 0)
(9.86676 -0.0835747 0)
(9.84663 -0.0764139 0)
(9.8261 -0.0705997 0)
(9.80533 -0.0658291 0)
(9.78449 -0.0618616 0)
(9.76373 -0.0584855 0)
(9.74325 -0.0554719 0)
(9.7224 -0.052205 0)
(9.95412 0.913092 0)
(9.95406 0.561002 0)
(9.86626 0.375415 0)
(9.7529 0.258525 0)
(9.63884 0.180489 0)
(9.52774 0.126934 0)
(9.41987 0.0891673 0)
(9.31602 0.0619604 0)
(9.21683 0.0420726 0)
(9.12254 0.0273831 0)
(9.03317 0.016448 0)
(8.94862 0.00826118 0)
(8.86876 0.00210913 0)
(8.7934 -0.00252059 0)
(8.72236 -0.00599795 0)
(8.65545 -0.00858329 0)
(8.59274 -0.0104216 0)
(8.53229 -0.0113573 0)
(0.00549773 -0.013302 0)
(0.0153852 -0.0162539 0)
(0.0235843 -0.0129445 0)
(0.0281075 -0.00735572 0)
(0.0275174 -0.00108721 0)
(0.0222544 0.00506099 0)
(0.0132991 0.0105123 -4.08778e-19)
(0.000910888 0.0150206 4.12657e-19)
(-0.0142918 0.0182223 0)
(-0.0311535 0.0203608 3.24704e-19)
(-0.0497879 0.0220582 0)
(-0.0699388 0.0235542 0)
(-0.0914623 0.024898 0)
(-0.114235 0.0260865 -1.98347e-19)
(-0.138135 0.0271119 0)
(-0.163039 0.0279741 0)
(-0.188827 0.0286807 1.48838e-19)
(-0.215386 0.029244 0)
(-0.242613 0.0296787 0)
(-0.270411 0.0300006 0)
(-0.298696 0.0302249 -1.09957e-19)
(-0.327395 0.030366 0)
(-0.356442 0.0304371 -9.70042e-20)
(-0.385783 0.03045 0)
(-0.415372 0.0304153 0)
(-0.445168 0.030342 -8.23998e-20)
(-0.475141 0.0302381 0)
(-0.505266 0.0301101 7.49129e-20)
(-0.535521 0.0299636 0)
(-0.565891 0.0298031 -6.87142e-20)
(-0.596365 0.0296322 0)
(-0.626933 0.0294535 0)
(-0.657592 0.0292691 0)
(-0.688336 0.0290803 0)
(-0.719163 0.0288878 0)
(-0.750073 0.028692 5.52634e-20)
(-0.781064 0.0284928 0)
(-0.812138 0.0282901 -1.03898e-19)
(-0.843293 0.0280836 0)
(-0.874531 0.0278738 9.80847e-20)
(-0.905849 0.0276614 0)
(-0.93725 0.0274487 0)
(-0.968743 0.0272413 -9.05925e-20)
(-1.00034 0.0270515 0)
(-1.03199 0.0268974 -8.62451e-20)
(-1.0638 0.0267827 8.42289e-20)
(-1.09576 0.0266884 0)
(-1.12789 0.0266042 8.04858e-20)
(-1.16019 0.0265244 7.87447e-20)
(-1.19267 0.0264452 0)
(-1.22532 0.0263641 0)
(-1.25813 0.0262788 0)
(-1.29111 0.0261879 0)
(-1.32424 0.0260899 0)
(-1.35751 0.0259835 -6.97853e-20)
(-1.39091 0.0258677 0)
(-1.42442 0.0257416 6.72661e-20)
(-1.45804 0.0256042 0)
(-1.49174 0.0254546 0)
(-1.52551 0.0252923 -6.38359e-20)
(-1.55933 0.0251164 0)
(-1.59317 0.0249264 6.17513e-20)
(-1.62702 0.0247217 0)
(-1.66085 0.0245017 0)
(-1.69464 0.024266 0)
(-1.72836 0.0240141 -5.79871e-20)
(-1.76198 0.0237456 0)
(-1.79549 0.02346 0)
(-1.82884 0.0231571 -5.54576e-20)
(-1.86202 0.0228364 0)
(-1.89498 0.0224975 -5.38853e-20)
(-1.9277 0.0221402 0)
(-1.96014 0.0217639 0)
(-1.99227 0.0213684 0)
(-2.02405 0.0209533 5.09587e-20)
(-2.05544 0.0205181 0)
(-2.08641 0.0200625 0)
(-2.11692 0.0195859 4.89101e-20)
(-2.14692 0.0190881 4.8248e-20)
(-2.17637 0.0185684 0)
(-2.20523 0.0180264 4.69473e-20)
(-2.23345 0.0174618 0)
(-2.26099 0.016874 9.13394e-20)
(-2.28778 0.0162628 0)
(-2.31379 0.0156277 8.88111e-20)
(-2.33896 0.0149685 0)
(-2.36323 0.0142852 -8.62906e-20)
(-2.38655 0.0135777 0)
(-2.40887 0.0128461 0)
(-2.43013 0.0120908 0)
(-2.45027 0.0113124 8.11974e-20)
(-2.46923 0.0105117 0)
(-2.48697 0.00968971 -7.8587e-20)
(-2.50341 0.00884775 0)
(-2.51852 0.00798738 7.5909e-20)
(-2.53223 0.00711036 7.45389e-20)
(-2.54451 0.00621862 7.3145e-20)
(-2.5553 0.00531418 0)
(-2.56456 0.00439914 0)
(-2.57226 0.00347544 0)
(-2.57836 0.00254424 0)
(-2.58282 0.00160577 0)
(-2.58561 0.000666294 0)
(-2.58671 -0.000261537 0)
(-2.58614 -0.00117463 0)
(-2.58388 -0.00207721 -5.90492e-20)
(-2.57994 -0.00296981 -5.7262e-20)
(-2.57431 -0.0038526 0)
(-2.567 -0.00472552 0)
(-2.55801 -0.00558854 0)
(-2.54733 -0.00644151 -4.96047e-20)
(-2.53497 -0.00728436 0)
(-2.52092 -0.00811692 0)
(-2.5052 -0.00893906 0)
(-2.4878 -0.00975058 0)
(-2.46873 -0.0105513 3.87185e-20)
(-2.44799 -0.011341 0)
(-2.42559 -0.0121195 0)
(-2.40155 -0.0128863 -3.13665e-20)
(-2.37586 -0.0136413 2.87625e-20)
(-2.34854 -0.0143842 0)
(-2.3196 -0.0151147 2.33053e-20)
(-2.28905 -0.0158326 0)
(-2.25691 -0.016538 -1.74926e-20)
(-2.22319 -0.0172308 0)
(-2.18792 -0.017911 0)
(-2.1511 -0.0185786 0)
(-2.11276 -0.0192335 0)
(-2.07292 -0.0198753 0)
(-2.0316 -0.0205039 -4.82334e-21)
(-1.98882 -0.021119 -1.22823e-20)
(-1.9446 -0.0217206 0)
(-1.89898 -0.0223088 0)
(-1.85199 -0.022884 0)
(-1.80365 -0.0234463 4.49343e-20)
(-1.75398 -0.0239957 0)
(-1.70303 -0.0245316 0)
(-1.65083 -0.0250538 0)
(-1.5974 -0.0255625 8.29017e-20)
(-1.5428 -0.0260586 -9.33795e-20)
(-1.48706 -0.0265431 0)
(-1.4302 -0.0270154 0)
(-1.37228 -0.0274741 -1.27612e-19)
(-1.31334 -0.0279201 -1.40066e-19)
(-1.25342 -0.0283559 0)
(-1.19257 -0.0287816 0)
(-1.13082 -0.0291944 1.81126e-19)
(-1.06823 -0.0295953 -1.96211e-19)
(-1.00485 -0.0299915 0)
(-0.940706 -0.0303788 0)
(-0.875873 -0.0307504 -2.46535e-19)
(-0.810389 -0.0311253 0)
(-0.744291 -0.0314943 0)
(-0.677642 -0.0318506 -3.06219e-19)
(-0.610478 -0.0322119 0)
(-0.542876 -0.032552 -3.52703e-19)
(-0.474844 -0.0329181 0)
(-0.406492 -0.0332738 0)
(-0.337738 -0.033658 0)
(-0.268837 -0.0340643 4.67869e-19)
(-0.199501 -0.034455 0)
(-0.129952 -0.0349557 0)
(-0.0609059 -0.0355123 0)
(0.00994881 -0.0352821 0)
(0.079111 -0.0340715 0)
(0.147407 -0.0328365 0)
(0.215103 -0.0317445 5.61253e-19)
(0.282206 -0.0307466 5.46383e-19)
(0.348755 -0.0298104 0)
(0.414744 -0.0289147 0)
(0.480134 -0.0280424 0)
(0.544858 -0.0271757 -4.97691e-19)
(0.608805 -0.0262917 0)
(0.671781 -0.0253508 9.56713e-19)
(0.733497 -0.0242912 -9.39678e-19)
(0.793263 -0.0229511 -9.24469e-19)
(0.850313 -0.0211117 9.1171e-19)
(0.900713 -0.0177611 -9.03173e-19)
(0.945418 -0.0120673 9.0285e-19)
(0.934965 0.00658185 0)
(0.00286563 -0.0299106 0)
(0.00556492 -0.0267412 0)
(0.00286162 -0.0133484 4.62201e-19)
(-0.00401384 0.00170953 0)
(-0.0136686 0.0154593 -3.0595e-19)
(-0.0256746 0.0271264 -2.76215e-19)
(-0.0397301 0.0366735 -1.28122e-19)
(-0.0555877 0.0443039 -1.20238e-19)
(-0.0730823 0.050304 0)
(-0.0920578 0.055117 -1.06311e-19)
(-0.112385 0.0591545 0)
(-0.13389 0.0626345 0)
(-0.156416 0.0656619 1.76048e-19)
(-0.179833 0.0682824 8.28066e-20)
(-0.204029 0.0705207 -1.55808e-19)
(-0.228906 0.0723985 -1.46919e-19)
(-0.254374 0.0739404 -6.94459e-20)
(-0.280355 0.0751744 0)
(-0.306776 0.0761312 0)
(-0.333573 0.0768423 0)
(-0.360688 0.0773387 -5.63138e-20)
(-0.388072 0.0776503 0)
(-0.415681 0.0778051 1.54206e-19)
(-0.44348 0.0778288 0)
(-0.471439 0.0777445 0)
(-0.499534 0.0775729 4.53713e-20)
(-0.527745 0.0773322 0)
(-0.556059 0.0770382 -4.20592e-20)
(-0.584465 0.0767042 -8.10598e-20)
(-0.612958 0.0763416 3.92045e-20)
(-0.641533 0.0759598 0)
(-0.67019 0.0755663 0)
(-0.69893 0.0751673 0)
(-0.727757 0.0747674 -6.89998e-20)
(-0.756675 0.0743699 -6.70257e-20)
(-0.78569 0.0739774 -3.26384e-20)
(-0.814809 0.0735914 0)
(-0.844039 0.0732128 6.188e-20)
(-0.873389 0.072842 0)
(-0.902867 0.0724794 -5.88491e-20)
(-0.932482 0.0721253 0)
(-0.962243 0.0717801 0)
(-0.992161 0.0714462 5.48739e-20)
(-1.02225 0.0711313 0)
(-1.0525 0.0708506 1.57381e-19)
(-1.08291 0.070606 -5.14477e-20)
(-1.11347 0.070384 0)
(-1.14419 0.0701731 -4.94018e-20)
(-1.17505 0.0699648 -4.84403e-20)
(-1.20606 0.0697522 0)
(-1.23721 0.0695303 0)
(-1.2685 0.0692944 0)
(-1.29991 0.0690409 0)
(-1.33144 0.0687665 0)
(-1.36308 0.0684683 4.33818e-20)
(-1.39481 0.0681437 8.50398e-20)
(-1.42662 0.0677903 -4.19218e-20)
(-1.4585 0.0674059 0)
(-1.49043 0.0669885 8.08715e-20)
(-1.52239 0.0665363 -3.96657e-20)
(-1.55437 0.0660478 0)
(-1.58634 0.0655213 -3.86557e-20)
(-1.61828 0.0649556 0)
(-1.65017 0.0643493 0)
(-1.68199 0.0637013 -7.35957e-20)
(-1.71372 0.0630107 3.63617e-20)
(-1.74532 0.0622764 -7.14224e-20)
(-1.77677 0.0614974 7.03745e-20)
(-1.80804 0.0606731 3.47855e-20)
(-1.83911 0.0598025 0)
(-1.86995 0.058885 3.37901e-20)
(-1.90052 0.0579196 0)
(-1.93079 0.0569056 0)
(-1.96073 0.0558422 0)
(-1.99031 0.0547285 3.17023e-20)
(-2.01948 0.0535638 0)
(-2.04822 0.052347 6.18057e-20)
(-2.07648 0.0510772 -9.14749e-20)
(-2.10423 0.0497534 -3.0113e-20)
(-2.13142 0.0483746 0)
(-2.15801 0.0469397 -2.92399e-20)
(-2.18395 0.0454479 0)
(-2.20921 0.043898 -5.67478e-20)
(-2.23372 0.0422893 0)
(-2.25745 0.0406212 -5.50189e-20)
(-2.28034 0.038893 1.08031e-19)
(-2.30234 0.0371047 5.32823e-20)
(-2.32339 0.0352564 0)
(-2.34344 0.0333486 0)
(-2.36244 0.0313825 0)
(-2.38032 0.0293598 -4.97455e-20)
(-2.39703 0.0272827 0)
(-2.41252 0.0251542 4.7926e-20)
(-2.42673 0.0229782 0)
(-2.43961 0.020759 -1.38076e-19)
(-2.4511 0.0185019 -4.51086e-20)
(-2.46116 0.0162123 -4.41422e-20)
(-2.46974 0.0138964 0)
(-2.4768 0.0115604 0)
(-2.4823 0.00920973 0)
(-2.4862 0.00684757 0)
(-2.48847 0.00447422 0)
(-2.48906 0.00210843 -7.60366e-20)
(-2.48802 -0.000221804 -7.38316e-20)
(-2.48532 -0.00251084 0)
(-2.48095 -0.00476267 3.45745e-20)
(-2.47493 -0.00697832 3.33948e-20)
(-2.46724 -0.00915789 0)
(-2.45789 -0.0113012 6.21446e-20)
(-2.44687 -0.0134078 0)
(-2.43418 -0.0154775 -2.86965e-20)
(-2.41983 -0.0175096 0)
(-2.40381 -0.0195037 0)
(-2.38613 -0.0214592 4.92124e-20)
(-2.36678 -0.0233755 0)
(-2.34578 -0.025252 -2.16417e-20)
(-2.32313 -0.027088 0)
(-2.29883 -0.0288827 0)
(-2.27289 -0.0306351 -1.76819e-20)
(-2.24533 -0.0323442 -1.5707e-20)
(-2.21613 -0.0340091 0)
(-2.18533 -0.0356289 1.30792e-20)
(-2.15293 -0.037203 0)
(-2.11895 -0.0387308 -9.86049e-21)
(-2.0834 -0.0402122 -1.58309e-20)
(-2.0463 -0.0416468 0)
(-2.00766 -0.0430343 0)
(-1.96751 -0.0443744 0)
(-1.92585 -0.0456662 0)
(-1.88273 -0.0469087 2.44681e-21)
(-1.83815 -0.0481007 1.71225e-20)
(-1.79214 -0.0492418 0)
(-1.74473 -0.0503321 0)
(-1.69595 -0.0513718 0)
(-1.64583 -0.0523614 -2.17328e-20)
(-1.59439 -0.0533004 0)
(-1.54167 -0.0541874 0)
(-1.4877 -0.0550208 6.65063e-20)
(-1.43252 -0.0558008 3.66387e-20)
(-1.37617 -0.0565288 4.26424e-20)
(-1.31869 -0.0572071 0)
(-1.2601 -0.0578342 0)
(-1.20046 -0.0584066 5.59752e-20)
(-1.13982 -0.0589249 -5.87126e-20)
(-1.0782 -0.0593941 0)
(-1.01567 -0.0598153 0)
(-0.952251 -0.0601817 -7.46716e-20)
(-0.888016 -0.0604934 2.36594e-19)
(-0.823005 -0.0607648 0)
(-0.757257 -0.0609896 0)
(-0.690839 -0.0611519 9.44146e-20)
(-0.623795 -0.0612843 0)
(-0.556167 -0.0613751 2.07328e-19)
(-0.488014 -0.06141 -1.07866e-19)
(-0.419376 -0.0614195 0)
(-0.350333 -0.0613629 1.20557e-19)
(-0.280861 -0.0613035 2.49891e-19)
(-0.211145 -0.061207 0)
(-0.140967 -0.0610896 0)
(-0.0707971 -0.0609945 -1.42648e-19)
(-2.11838e-05 -0.0607721 0)
(0.0706725 -0.060463 2.96752e-19)
(0.140698 -0.0602385 0)
(0.210692 -0.0595634 0)
(0.280161 -0.0582823 0)
(0.349278 -0.0570096 0)
(0.417897 -0.0558305 -1.5589e-19)
(0.485997 -0.0547131 -1.57099e-19)
(0.553558 -0.0536262 0)
(0.620548 -0.0525444 0)
(0.686916 -0.0514442 0)
(0.752586 -0.0502977 1.61122e-19)
(0.817444 -0.0490635 0)
(0.881301 -0.0476689 -3.25472e-19)
(0.943879 -0.0459862 3.26994e-19)
(1.00459 -0.0437332 3.28562e-19)
(1.06281 -0.0404175 3.28056e-19)
(1.11576 -0.0345937 3.3277e-19)
(1.16546 -0.0238778 3.35066e-19)
(1.18778 -2.99546e-05 0)
(-0.00187851 -0.0299653 0)
(-0.00826176 -0.0139439 0)
(-0.0189409 0.00742419 -2.88447e-19)
(-0.0312637 0.0262641 -2.15433e-19)
(-0.0449157 0.0425945 1.82797e-19)
(-0.0596438 0.0566721 1.64918e-19)
(-0.07544 0.0686594 5.11028e-23)
(-0.0923349 0.0787448 0)
(-0.110336 0.0871735 0)
(-0.129402 0.0942376 0)
(-0.149443 0.100214 0)
(-0.170339 0.105307 0)
(-0.191969 0.109651 -3.30856e-19)
(-0.214229 0.113334 0)
(-0.23703 0.116421 9.94115e-20)
(-0.260298 0.118964 9.45227e-20)
(-0.28397 0.121012 0)
(-0.307993 0.122614 0)
(-0.33232 0.123818 0)
(-0.356911 0.124673 0)
(-0.381732 0.125224 7.49898e-20)
(-0.406753 0.125515 0)
(-0.431951 0.125587 -6.90585e-20)
(-0.457303 0.125477 0)
(-0.482795 0.12522 0)
(-0.508414 0.124844 0)
(-0.534149 0.124377 -1.18995e-19)
(-0.559995 0.12384 0)
(-0.585948 0.123254 5.56803e-20)
(-0.612005 0.122636 -1.07798e-19)
(-0.638168 0.121997 0)
(-0.664439 0.121351 0)
(-0.69082 0.120704 0)
(-0.717316 0.120065 4.79649e-20)
(-0.743932 0.119438 4.66806e-20)
(-0.770675 0.118827 0)
(-0.79755 0.118234 0)
(-0.824566 0.117661 -8.63505e-20)
(-0.851727 0.117109 -8.42797e-20)
(-0.879042 0.116578 8.23112e-20)
(-0.906516 0.116067 0)
(-0.934156 0.115578 0)
(-0.961966 0.115111 0)
(-0.989947 0.114666 0)
(-1.0181 0.114246 -7.38766e-20)
(-1.04641 0.113846 -7.2251e-20)
(-1.07488 0.113459 7.08102e-20)
(-1.1035 0.113075 0)
(-1.13227 0.112687 0)
(-1.16117 0.112287 0)
(-1.19021 0.111869 0)
(-1.21938 0.111425 -6.43639e-20)
(-1.24866 0.110953 0)
(-1.27805 0.110445 0)
(-1.30754 0.109899 -6.10014e-20)
(-1.33711 0.109309 -6.00903e-20)
(-1.36675 0.108673 0)
(-1.39645 0.107986 1.1589e-19)
(-1.42619 0.107247 -5.71256e-20)
(-1.45596 0.106452 5.61935e-20)
(-1.48573 0.105598 0)
(-1.51549 0.104684 0)
(-1.54521 0.103706 0)
(-1.57488 0.102664 0)
(-1.60447 0.101556 5.18886e-20)
(-1.63396 0.100379 1.01908e-19)
(-1.66333 0.0991334 5.03082e-20)
(-1.69255 0.0978166 -4.95435e-20)
(-1.72159 0.0964277 0)
(-1.75043 0.0949655 9.58585e-20)
(-1.77904 0.0934288 9.4419e-20)
(-1.80738 0.0918164 9.30043e-20)
(-1.83544 0.0901271 -9.16124e-20)
(-1.86318 0.0883597 0)
(-1.89056 0.0865128 -1.33453e-19)
(-1.91756 0.0845851 0)
(-1.94413 0.0825751 4.30029e-20)
(-1.97025 0.0804812 4.25736e-20)
(-1.99587 0.0783018 0)
(-2.02096 0.0760352 0)
(-2.04547 0.0736797 8.10632e-20)
(-2.06936 0.0712336 0)
(-2.09259 0.0686953 7.85195e-20)
(-2.11512 0.0660633 0)
(-2.13689 0.0633365 -7.5984e-20)
(-2.15785 0.0605139 -1.49586e-19)
(-2.17796 0.0575951 0)
(-2.19716 0.0545802 0)
(-2.2154 0.0514702 0)
(-2.23262 0.0482665 -6.95916e-20)
(-2.24878 0.0449719 0)
(-2.2638 0.04159 -6.69793e-20)
(-2.27764 0.0381257 0)
(-2.29025 0.0345848 0)
(-2.30156 0.0309747 1.25976e-19)
(-2.31153 0.0273034 0)
(-2.32011 0.0235801 6.02116e-20)
(-2.32725 0.0198146 0)
(-2.33291 0.016017 5.73864e-20)
(-2.33704 0.0121964 0)
(-2.33963 0.00835998 0)
(-2.3406 0.00451729 0)
(-2.34 0.000706389 1.54218e-19)
(-2.33779 -0.0030413 4.97695e-20)
(-2.33398 -0.00672667 0)
(-2.32855 -0.0103513 0)
(-2.32152 -0.0139158 0)
(-2.31286 -0.0174201 0)
(-2.30259 -0.0208639 -4.14449e-20)
(-2.2907 -0.0242465 7.97434e-20)
(-2.27719 -0.0275672 3.79244e-20)
(-2.26206 -0.0308252 -7.26474e-20)
(-2.2453 -0.0340196 -6.90144e-20)
(-2.22693 -0.0371494 -3.2432e-20)
(-2.20694 -0.0402137 0)
(-2.18534 -0.0432112 -5.77721e-20)
(-2.16213 -0.046141 0)
(-2.13731 -0.0490015 4.99909e-20)
(-2.11089 -0.0517914 2.27077e-20)
(-2.08288 -0.0545088 0)
(-2.05329 -0.057152 -3.78925e-20)
(-2.02212 -0.0597195 -1.6534e-20)
(-1.9894 -0.0622102 0)
(-1.95513 -0.0646231 -1.30115e-20)
(-1.91932 -0.0669576 3.10964e-20)
(-1.882 -0.0692132 0)
(-1.84317 -0.0713893 0)
(-1.80287 -0.0734852 0)
(-1.76109 -0.0754997 0)
(-1.71787 -0.0774306 -1.34056e-21)
(-1.67323 -0.079276 -6.85229e-21)
(-1.62719 -0.0810349 0)
(-1.57978 -0.0827069 0)
(-1.53103 -0.0842924 0)
(-1.48096 -0.085792 0)
(-1.4296 -0.0872053 0)
(-1.37699 -0.0885295 0)
(-1.32315 -0.0897616 -4.0503e-20)
(-1.26813 -0.0909015 -1.0561e-21)
(-1.21196 -0.0919509 0)
(-1.15469 -0.092914 0)
(-1.09633 -0.0937885 -5.94137e-20)
(-1.03695 -0.0945679 0)
(-0.976575 -0.0952524 7.06837e-20)
(-0.915265 -0.0958502 7.46533e-20)
(-0.853054 -0.0963634 0)
(-0.789988 -0.0967811 0)
(-0.726125 -0.0971015 -9.12343e-20)
(-0.661512 -0.0973475 -1.90429e-19)
(-0.596185 -0.097511 0)
(-0.530211 -0.097566 0)
(-0.463632 -0.097559 0)
(-0.396502 -0.0974769 -1.17111e-19)
(-0.328866 -0.0972973 1.22285e-19)
(-0.260769 -0.0970647 0)
(-0.192311 -0.096733 2.62748e-19)
(-0.123379 -0.0963611 1.35282e-19)
(-0.0543384 -0.0959544 -2.8329e-19)
(0.015317 -0.0954291 0)
(0.0847029 -0.0948474 0)
(0.154078 -0.0940998 -3.03024e-19)
(0.223334 -0.0931587 -1.55204e-19)
(0.292234 -0.0922089 0)
(0.360843 -0.0909984 0)
(0.429193 -0.0894514 0)
(0.49732 -0.0878906 0)
(0.565041 -0.0863712 -3.32215e-19)
(0.63229 -0.08488 0)
(0.699015 -0.0833914 0)
(0.765167 -0.0818792 0)
(0.830686 -0.0803145 0)
(0.895495 -0.0786581 0)
(0.959481 -0.0768492 0)
(1.02247 -0.0747818 -3.59826e-19)
(1.08421 -0.0722706 0)
(1.14422 -0.0689403 0)
(1.20211 -0.0641468 -7.41767e-19)
(1.25589 -0.0563041 3.74175e-19)
(1.30864 -0.0431487 -3.8104e-19)
(1.34647 -0.0183417 3.86675e-19)
(-0.00691821 -0.0133891 0)
(-0.0190851 0.013405 7.42524e-19)
(-0.0330959 0.0368512 0)
(-0.0483602 0.0568617 1.61404e-19)
(-0.0642888 0.0743934 0)
(-0.0806355 0.0897859 0)
(-0.0974717 0.103185 -1.13499e-19)
(-0.114889 0.11472 0)
(-0.132937 0.124562 0)
(-0.151622 0.13292 0)
(-0.170909 0.140009 0)
(-0.19074 0.146011 0)
(-0.211049 0.151074 3.30254e-19)
(-0.231772 0.155311 1.57314e-19)
(-0.252855 0.158813 -1.49999e-19)
(-0.274251 0.161659 0)
(-0.295923 0.163917 0)
(-0.317839 0.165652 0)
(-0.339973 0.166926 0)
(-0.362303 0.167797 0)
(-0.384811 0.168321 1.15515e-19)
(-0.407483 0.16855 1.11087e-19)
(-0.430307 0.16853 -1.06963e-19)
(-0.453272 0.168307 1.03118e-19)
(-0.476373 0.167918 0)
(-0.499604 0.167398 0)
(-0.522961 0.166779 9.30378e-20)
(-0.546443 0.166086 0)
(-0.570049 0.165343 0)
(-0.59378 0.164567 8.47481e-20)
(-0.617639 0.163776 8.2289e-20)
(-0.641628 0.162981 7.99835e-20)
(-0.665751 0.162193 0)
(-0.690013 0.16142 0)
(-0.714417 0.160667 -7.37962e-20)
(-0.738969 0.159938 0)
(-0.763675 0.159235 0)
(-0.788537 0.158559 6.85567e-20)
(-0.813563 0.157911 -6.68783e-20)
(-0.838754 0.15729 6.53557e-20)
(-0.864116 0.156694 0)
(-0.889649 0.156121 0)
(-0.915356 0.15557 1.22461e-19)
(-0.941235 0.155038 0)
(-0.967283 0.154522 1.17456e-19)
(-0.993494 0.154016 1.72708e-19)
(-1.01986 0.153512 -1.69305e-19)
(-1.04638 0.153003 1.10642e-19)
(-1.07305 0.152479 0)
(-1.09985 0.151933 0)
(-1.12679 0.151358 1.04527e-19)
(-1.15384 0.150745 5.13792e-20)
(-1.18101 0.15009 0)
(-1.20829 0.149385 0)
(-1.23565 0.148626 4.87041e-20)
(-1.2631 0.147806 9.5594e-20)
(-1.29061 0.146922 0)
(-1.31818 0.145969 -9.25254e-20)
(-1.34578 0.144943 9.08501e-20)
(-1.3734 0.143839 -8.93558e-20)
(-1.40102 0.142656 0)
(-1.42862 0.14139 0)
(-1.45619 0.140037 0)
(-1.4837 0.138597 0)
(-1.51113 0.137065 0)